title                                                                   
Stability UHF                                                         GenECP              
Number of atoms                            I               12
Info1-9                                    I   N=           9
          16          15           0           0           0         110
           7           1           2
Full Title                                 C   N=           1
title       
Route                                      C   N=           8
#p UHF genecp 6D 10F nosymm guess=read stable=opt int(nobasi
stransform,acc2e=10) geom=allcheck  
Charge                                     I                2
Multiplicity                               I                1
Number of electrons                        I               72
Number of alpha electrons                  I               36
Number of beta electrons                   I               36
Number of basis functions                  I              138
Number of independent functions            I              138
Number of point charges in /Mol/           I                0
Number of translation vectors              I                0
Atomic numbers                             I   N=          12
          29          29           8           8           7           7
           1           1           1           1           1           1
Nuclear charges                            R   N=          12
  1.90000000E+01  1.90000000E+01  8.00000000E+00  8.00000000E+00  7.00000000E+00
  7.00000000E+00  1.00000000E+00  1.00000000E+00  1.00000000E+00  1.00000000E+00
  1.00000000E+00  1.00000000E+00
Current cartesian coordinates              R   N=          36
  0.00000000E+00  2.64561657E+00  0.00000000E+00  0.00000000E+00 -2.64561657E+00
  0.00000000E+00  0.00000000E+00  0.00000000E+00  2.17318504E+00  0.00000000E+00
  0.00000000E+00 -2.17318504E+00  0.00000000E+00  6.42506882E+00  0.00000000E+00
  0.00000000E+00 -6.42506882E+00  0.00000000E+00 -1.77576241E+00  7.07139295E+00
  0.00000000E+00  1.77576241E+00 -7.07139295E+00  0.00000000E+00  8.87880261E-01
  7.07139295E+00  1.53785534E+00 -8.87880261E-01 -7.07139295E+00 -1.53785534E+00
  8.87880261E-01  7.07139295E+00 -1.53785534E+00 -8.87880261E-01 -7.07139295E+00
  1.53785534E+00
Number of symbols in /Mol/                 I                0
Force Field                                I                0
Atom Types                                 C   N=          12
                                                            
                                                            
                        
Int Atom Types                             I   N=          12
           0           0           0           0           0           0
           0           0           0           0           0           0
MM charges                                 R   N=          12
  0.00000000E+00  0.00000000E+00  0.00000000E+00  0.00000000E+00  0.00000000E+00
  0.00000000E+00  0.00000000E+00  0.00000000E+00  0.00000000E+00  0.00000000E+00
  0.00000000E+00  0.00000000E+00
Integer atomic weights                     I   N=          12
          63          63          16          16          14          14
           1           1           1           1           1           1
Real atomic weights                        R   N=          12
  6.29295992E+01  6.29295992E+01  1.59949146E+01  1.59949146E+01  1.40030740E+01
  1.40030740E+01  1.00782504E+00  1.00782504E+00  1.00782504E+00  1.00782504E+00
  1.00782504E+00  1.00782504E+00
Atom fragment info                         I   N=          12
           0           0           0           0           0           0
           0           0           0           0           0           0
Atom residue num                           I   N=          12
           0           0           0           0           0           0
           0           0           0           0           0           0
Nuclear spins                              I   N=          12
           3           3           0           0           2           2
           1           1           1           1           1           1
Nuclear ZEff                               R   N=          12
 -1.76900000E+01 -1.76900000E+01 -5.60000000E+00 -5.60000000E+00 -4.55000000E+00
 -4.55000000E+00 -1.00000000E+00 -1.00000000E+00 -1.00000000E+00 -1.00000000E+00
 -1.00000000E+00 -1.00000000E+00
Nuclear ZNuc                               R   N=          12
  2.90000000E+01  2.90000000E+01  8.00000000E+00  8.00000000E+00  7.00000000E+00
  7.00000000E+00  1.00000000E+00  1.00000000E+00  1.00000000E+00  1.00000000E+00
  1.00000000E+00  1.00000000E+00
Nuclear QMom                               R   N=          12
 -2.20000000E+01 -2.20000000E+01  0.00000000E+00  0.00000000E+00  2.04400000E+00
  2.04400000E+00  0.00000000E+00  0.00000000E+00  0.00000000E+00  0.00000000E+00
  0.00000000E+00  0.00000000E+00
Nuclear GFac                               R   N=          12
  2.22330000E+00  2.22330000E+00  0.00000000E+00  0.00000000E+00  4.03761000E-01
  4.03761000E-01  2.79284600E+00  2.79284600E+00  2.79284600E+00  2.79284600E+00
  2.79284600E+00  2.79284600E+00
MicOpt                                     I   N=          12
          -1          -1          -1          -1          -1          -1
          -1          -1          -1          -1          -1          -1
Number of residues                         I                0
Number of secondary structures             I                0
SymInf integers                            I   N=          26
           1           1           1           1           1           0
           0           0           0           0           0           0
           0           0           0           0           0           0
           0           0           0           0           0           0
           0           0
RotTr to input orientation                 R   N=          12
  1.00000000E+00  0.00000000E+00  0.00000000E+00  0.00000000E+00  1.00000000E+00
  0.00000000E+00  0.00000000E+00  0.00000000E+00  1.00000000E+00 -0.00000000E+00
 -0.00000000E+00 -0.00000000E+00
Number of contracted shells                I               58
Number of primitive shells                 I              154
Pure/Cartesian d shells                    I                1
Pure/Cartesian f shells                    I                1
Highest angular momentum                   I                2
Largest degree of contraction              I                8
Shell types                                I   N=          58
           0           0           0           1           1           1
           2           2           0           0           0           1
           1           1           2           2           0           0
           0           1           1           2           0           0
           0           1           1           2           0           0
           0           1           1           2           0           0
           0           1           1           2           0           0
           1           0           0           1           0           0
           1           0           0           1           0           0
           1           0           0           1
Number of primitives per shell             I   N=          58
           3           4           1           3           1           1
           4           1           3           4           1           3
           1           1           4           1           8           8
           1           3           1           1           8           8
           1           3           1           1           8           8
           1           3           1           1           8           8
           1           3           1           1           3           1
           1           3           1           1           3           1
           1           3           1           1           3           1
           1           3           1           1
Shell to atom map                          I   N=          58
           1           1           1           1           1           1
           1           1           2           2           2           2
           2           2           2           2           3           3
           3           3           3           3           4           4
           4           4           4           4           5           5
           5           5           5           5           6           6
           6           6           6           6           7           7
           7           8           8           8           9           9
           9          10          10          10          11          11
          11          12          12          12
Primitive exponents                        R   N=         154
  8.17600000E+00  2.56800000E+00  9.58700000E-01  8.17600000E+00  2.56800000E+00
  9.58700000E-01  1.15300000E-01  3.96000000E-02  2.56300000E+01  3.16600000E+00
  1.02300000E+00  8.60000000E-02  2.40000000E-02  4.13400000E+01  1.14200000E+01
  3.83900000E+00  1.23000000E+00  3.10200000E-01  8.17600000E+00  2.56800000E+00
  9.58700000E-01  8.17600000E+00  2.56800000E+00  9.58700000E-01  1.15300000E-01
  3.96000000E-02  2.56300000E+01  3.16600000E+00  1.02300000E+00  8.60000000E-02
  2.40000000E-02  4.13400000E+01  1.14200000E+01  3.83900000E+00  1.23000000E+00
  3.10200000E-01  1.17200000E+04  1.75900000E+03  4.00800000E+02  1.13700000E+02
  3.70300000E+01  1.32700000E+01  5.02500000E+00  1.01300000E+00  1.17200000E+04
  1.75900000E+03  4.00800000E+02  1.13700000E+02  3.70300000E+01  1.32700000E+01
  5.02500000E+00  1.01300000E+00  3.02300000E-01  1.77000000E+01  3.85400000E+00
  1.04600000E+00  2.75300000E-01  1.18500000E+00  1.17200000E+04  1.75900000E+03
  4.00800000E+02  1.13700000E+02  3.70300000E+01  1.32700000E+01  5.02500000E+00
  1.01300000E+00  1.17200000E+04  1.75900000E+03  4.00800000E+02  1.13700000E+02
  3.70300000E+01  1.32700000E+01  5.02500000E+00  1.01300000E+00  3.02300000E-01
  1.77000000E+01  3.85400000E+00  1.04600000E+00  2.75300000E-01  1.18500000E+00
  9.04600000E+03  1.35700000E+03  3.09300000E+02  8.77300000E+01  2.85600000E+01
  1.02100000E+01  3.83800000E+00  7.46600000E-01  9.04600000E+03  1.35700000E+03
  3.09300000E+02  8.77300000E+01  2.85600000E+01  1.02100000E+01  3.83800000E+00
  7.46600000E-01  2.24800000E-01  1.35500000E+01  2.91700000E+00  7.97300000E-01
  2.18500000E-01  8.17000000E-01  9.04600000E+03  1.35700000E+03  3.09300000E+02
  8.77300000E+01  2.85600000E+01  1.02100000E+01  3.83800000E+00  7.46600000E-01
  9.04600000E+03  1.35700000E+03  3.09300000E+02  8.77300000E+01  2.85600000E+01
  1.02100000E+01  3.83800000E+00  7.46600000E-01  2.24800000E-01  1.35500000E+01
  2.91700000E+00  7.97300000E-01  2.18500000E-01  8.17000000E-01  1.30100000E+01
  1.96200000E+00  4.44600000E-01  1.22000000E-01  7.27000000E-01  1.30100000E+01
  1.96200000E+00  4.44600000E-01  1.22000000E-01  7.27000000E-01  1.30100000E+01
  1.96200000E+00  4.44600000E-01  1.22000000E-01  7.27000000E-01  1.30100000E+01
  1.96200000E+00  4.44600000E-01  1.22000000E-01  7.27000000E-01  1.30100000E+01
  1.96200000E+00  4.44600000E-01  1.22000000E-01  7.27000000E-01  1.30100000E+01
  1.96200000E+00  4.44600000E-01  1.22000000E-01  7.27000000E-01
Contraction coefficients                   R   N=         154
 -4.21025989E-01  7.38592381E-01  5.52569186E-01  1.78766454E-01 -3.59227208E-01
 -4.70482380E-01  1.08074072E+00  1.00000000E+00 -4.89173002E-02  6.27285402E-01
  4.71618802E-01  1.00000000E+00  1.00000000E+00  4.65424016E-02  2.22782408E-01
  4.53905916E-01  5.31476918E-01  1.00000000E+00 -4.21025989E-01  7.38592381E-01
  5.52569186E-01  1.78766454E-01 -3.59227208E-01 -4.70482380E-01  1.08074072E+00
  1.00000000E+00 -4.89173002E-02  6.27285402E-01  4.71618802E-01  1.00000000E+00
  1.00000000E+00  4.65424016E-02  2.22782408E-01  4.53905916E-01  5.31476918E-01
  1.00000000E+00  7.09645947E-04  5.46727229E-03  2.78231186E-02  1.04747740E-01
  2.82920846E-01  4.48495239E-01  2.70816885E-01  1.54502916E-02 -3.14443412E-04
 -2.48213768E-03 -1.23163554E-02 -5.05389173E-02 -1.39384903E-01 -3.25077495E-01
 -2.29848308E-01  1.09537935E+00  1.00000000E+00  6.26791663E-02  3.33536566E-01
  7.41239642E-01  1.00000000E+00  1.00000000E+00  7.09645947E-04  5.46727229E-03
  2.78231186E-02  1.04747740E-01  2.82920846E-01  4.48495239E-01  2.70816885E-01
  1.54502916E-02 -3.14443412E-04 -2.48213768E-03 -1.23163554E-02 -5.05389173E-02
 -1.39384903E-01 -3.25077495E-01 -2.29848308E-01  1.09537935E+00  1.00000000E+00
  6.26791663E-02  3.33536566E-01  7.41239642E-01  1.00000000E+00  1.00000000E+00
  6.99617413E-04  5.38605463E-03  2.73910212E-02  1.03150592E-01  2.78570663E-01
  4.48294849E-01  2.78085928E-01  1.54315612E-02 -3.04990096E-04 -2.40802638E-03
 -1.19444487E-02 -4.89259929E-02 -1.34472725E-01 -3.15112578E-01 -2.42857833E-01
  1.09438221E+00  1.00000000E+00  5.89056768E-02  3.20461107E-01  7.53042062E-01
  1.00000000E+00  1.00000000E+00  6.99617413E-04  5.38605463E-03  2.73910212E-02
  1.03150592E-01  2.78570663E-01  4.48294849E-01  2.78085928E-01  1.54315612E-02
 -3.04990096E-04 -2.40802638E-03 -1.19444487E-02 -4.89259929E-02 -1.34472725E-01
 -3.15112578E-01 -2.42857833E-01  1.09438221E+00  1.00000000E+00  5.89056768E-02
  3.20461107E-01  7.53042062E-01  1.00000000E+00  1.00000000E+00  3.34987264E-02
  2.34800801E-01  8.13682958E-01  1.00000000E+00  1.00000000E+00  3.34987264E-02
  2.34800801E-01  8.13682958E-01  1.00000000E+00  1.00000000E+00  3.34987264E-02
  2.34800801E-01  8.13682958E-01  1.00000000E+00  1.00000000E+00  3.34987264E-02
  2.34800801E-01  8.13682958E-01  1.00000000E+00  1.00000000E+00  3.34987264E-02
  2.34800801E-01  8.13682958E-01  1.00000000E+00  1.00000000E+00  3.34987264E-02
  2.34800801E-01  8.13682958E-01  1.00000000E+00  1.00000000E+00
Coordinates of each shell                  R   N=         174
  0.00000000E+00  2.64561657E+00  0.00000000E+00  0.00000000E+00  2.64561657E+00
  0.00000000E+00  0.00000000E+00  2.64561657E+00  0.00000000E+00  0.00000000E+00
  2.64561657E+00  0.00000000E+00  0.00000000E+00  2.64561657E+00  0.00000000E+00
  0.00000000E+00  2.64561657E+00  0.00000000E+00  0.00000000E+00  2.64561657E+00
  0.00000000E+00  0.00000000E+00  2.64561657E+00  0.00000000E+00  0.00000000E+00
 -2.64561657E+00  0.00000000E+00  0.00000000E+00 -2.64561657E+00  0.00000000E+00
  0.00000000E+00 -2.64561657E+00  0.00000000E+00  0.00000000E+00 -2.64561657E+00
  0.00000000E+00  0.00000000E+00 -2.64561657E+00  0.00000000E+00  0.00000000E+00
 -2.64561657E+00  0.00000000E+00  0.00000000E+00 -2.64561657E+00  0.00000000E+00
  0.00000000E+00 -2.64561657E+00  0.00000000E+00  0.00000000E+00  0.00000000E+00
  2.17318504E+00  0.00000000E+00  0.00000000E+00  2.17318504E+00  0.00000000E+00
  0.00000000E+00  2.17318504E+00  0.00000000E+00  0.00000000E+00  2.17318504E+00
  0.00000000E+00  0.00000000E+00  2.17318504E+00  0.00000000E+00  0.00000000E+00
  2.17318504E+00  0.00000000E+00  0.00000000E+00 -2.17318504E+00  0.00000000E+00
  0.00000000E+00 -2.17318504E+00  0.00000000E+00  0.00000000E+00 -2.17318504E+00
  0.00000000E+00  0.00000000E+00 -2.17318504E+00  0.00000000E+00  0.00000000E+00
 -2.17318504E+00  0.00000000E+00  0.00000000E+00 -2.17318504E+00  0.00000000E+00
  6.42506882E+00  0.00000000E+00  0.00000000E+00  6.42506882E+00  0.00000000E+00
  0.00000000E+00  6.42506882E+00  0.00000000E+00  0.00000000E+00  6.42506882E+00
  0.00000000E+00  0.00000000E+00  6.42506882E+00  0.00000000E+00  0.00000000E+00
  6.42506882E+00  0.00000000E+00  0.00000000E+00 -6.42506882E+00  0.00000000E+00
  0.00000000E+00 -6.42506882E+00  0.00000000E+00  0.00000000E+00 -6.42506882E+00
  0.00000000E+00  0.00000000E+00 -6.42506882E+00  0.00000000E+00  0.00000000E+00
 -6.42506882E+00  0.00000000E+00  0.00000000E+00 -6.42506882E+00  0.00000000E+00
 -1.77576241E+00  7.07139295E+00  0.00000000E+00 -1.77576241E+00  7.07139295E+00
  0.00000000E+00 -1.77576241E+00  7.07139295E+00  0.00000000E+00  1.77576241E+00
 -7.07139295E+00  0.00000000E+00  1.77576241E+00 -7.07139295E+00  0.00000000E+00
  1.77576241E+00 -7.07139295E+00  0.00000000E+00  8.87880261E-01  7.07139295E+00
  1.53785534E+00  8.87880261E-01  7.07139295E+00  1.53785534E+00  8.87880261E-01
  7.07139295E+00  1.53785534E+00 -8.87880261E-01 -7.07139295E+00 -1.53785534E+00
 -8.87880261E-01 -7.07139295E+00 -1.53785534E+00 -8.87880261E-01 -7.07139295E+00
 -1.53785534E+00  8.87880261E-01  7.07139295E+00 -1.53785534E+00  8.87880261E-01
  7.07139295E+00 -1.53785534E+00  8.87880261E-01  7.07139295E+00 -1.53785534E+00
 -8.87880261E-01 -7.07139295E+00  1.53785534E+00 -8.87880261E-01 -7.07139295E+00
  1.53785534E+00 -8.87880261E-01 -7.07139295E+00  1.53785534E+00
Num ILSW                                   I              100
ILSW                                       I   N=         100
           1           1           0           0           2           1
           0           0           0           0           0          -1
           5           0           0           1           0           0
           0           0           0           0           0           0
           1           1           0           0           0           0
           0           0      100000           0          -1           0
           0           0           0           0           0           0
           0           0           0           1           0           0
           0 -2000000000           1           0           0           0
           0           0           4          52           0           0
           0           0           0           0           0           0
           0           0           0          12           0           1
           0           0           0           0           0           0
           0           0           0           0           0           0
           0           0           0           0           0           0
           0           0           0           0           0           0
           0           0           0           0
Num RLSW                                   I               52
RLSW                                       R   N=          52
  1.00000000E+00  1.00000000E+00  1.00000000E+00  1.00000000E+00  1.00000000E+00
  0.00000000E+00  0.00000000E+00  1.00000000E+00  0.00000000E+00  0.00000000E+00
  0.00000000E+00  0.00000000E+00  1.00000000E+00  0.00000000E+00  0.00000000E+00
  0.00000000E+00  0.00000000E+00  1.00000000E+00  0.00000000E+00  0.00000000E+00
  0.00000000E+00  0.00000000E+00  1.00000000E+00  0.00000000E+00  0.00000000E+00
  0.00000000E+00  0.00000000E+00  1.00000000E+00  0.00000000E+00  0.00000000E+00
  0.00000000E+00  0.00000000E+00  1.00000000E+00  0.00000000E+00  0.00000000E+00
  0.00000000E+00  0.00000000E+00  0.00000000E+00  1.00000000E+00  1.00000000E+00
  0.00000000E+00  1.00000000E+00  0.00000000E+00  0.00000000E+00  0.00000000E+00
  0.00000000E+00  0.00000000E+00  0.00000000E+00  0.00000000E+00  0.00000000E+00
  0.00000000E+00  0.00000000E+00
ECP-MxAtEC                                 I           250000
ECP-MaxLECP                                I               10
ECP-MaxAtL                                 I          2250000
ECP-MxTECP                                 I         11250000
ECP-LenNCZ                                 I               11
ECP-KFirst                                 I   N=         120
           1           1           0           0           0           0
           0           0           0           0           0           0
           4           4           0           0           0           0
           0           0           0           0           0           0
           8           8           0           0           0           0
           0           0           0           0           0           0
           0           0           0           0           0           0
           0           0           0           0           0           0
           0           0           0           0           0           0
           0           0           0           0           0           0
           0           0           0           0           0           0
           0           0           0           0           0           0
           0           0           0           0           0           0
           0           0           0           0           0           0
           0           0           0           0           0           0
           0           0           0           0           0           0
           0           0           0           0           0           0
           0           0           0           0           0           0
           0           0           0           0           0           0
           0           0           0           0           0           0
ECP-KLast                                  I   N=         120
           3           3           0           0           0           0
           0           0           0           0           0           0
           7           7           0           0           0           0
           0           0           0           0           0           0
          11          11           0           0           0           0
           0           0           0           0           0           0
           0           0           0           0           0           0
           0           0           0           0           0           0
           0           0           0           0           0           0
           0           0           0           0           0           0
           0           0           0           0           0           0
           0           0           0           0           0           0
           0           0           0           0           0           0
           0           0           0           0           0           0
           0           0           0           0           0           0
           0           0           0           0           0           0
           0           0           0           0           0           0
           0           0           0           0           0           0
           0           0           0           0           0           0
           0           0           0           0           0           0
ECP-LMax                                   I   N=          12
           2           2           0           0           0           0
           0           0           0           0           0           0
ECP-LPSkip                                 I   N=          12
           0           0           1           1           1           1
           1           1           1           1           1           1
ECP-RNFroz                                 R   N=          12
  1.00000000E+01  1.00000000E+01  0.00000000E+00  0.00000000E+00  0.00000000E+00
  0.00000000E+00  0.00000000E+00  0.00000000E+00  0.00000000E+00  0.00000000E+00
  0.00000000E+00  0.00000000E+00
ECP-NLP                                    I   N=          11
           1           2           2           0           1           2
           2           0           1           2           2
ECP-CLP1                                   R   N=          11
 -1.00000000E+01 -7.25548282E+01 -1.27450231E+01  3.00000000E+00  2.38351825E+01
  4.73893049E+02  1.57634582E+02  5.00000000E+00  6.49909360E+00  3.51460539E+02
  8.55016036E+01
ECP-CLP2                                   R   N=          11
  0.00000000E+00  0.00000000E+00  0.00000000E+00  0.00000000E+00  0.00000000E+00
  0.00000000E+00  0.00000000E+00  0.00000000E+00  0.00000000E+00  0.00000000E+00
  0.00000000E+00
ECP-ZLP                                    R   N=          11
  5.11995176E+02  9.32801074E+01  2.32206669E+01  1.73118085E+02  1.85241989E+02
  7.31517847E+01  1.46884157E+01  1.00719137E+02  1.30834566E+02  5.38683720E+01
  1.40989469E+01
MxBond                                     I                4
NBond                                      I   N=          12
           4           4           2           2           4           4
           1           1           1           1           1           1
IBond                                      I   N=          48
           2           3           4           5           1           3
           4           6           1           2           0           0
           1           2           0           0           1           7
           9          11           2           8          10          12
           5           0           0           0           6           0
           0           0           5           0           0           0
           6           0           0           0           5           0
           0           0           6           0           0           0
RBond                                      R   N=          48
  1.00000000E+00  1.00000000E+00  1.00000000E+00  1.00000000E+00  1.00000000E+00
  1.00000000E+00  1.00000000E+00  1.00000000E+00  1.00000000E+00  1.00000000E+00
  0.00000000E+00  0.00000000E+00  1.00000000E+00  1.00000000E+00  0.00000000E+00
  0.00000000E+00  1.00000000E+00  1.00000000E+00  1.00000000E+00  1.00000000E+00
  1.00000000E+00  1.00000000E+00  1.00000000E+00  1.00000000E+00  1.00000000E+00
  0.00000000E+00  0.00000000E+00  0.00000000E+00  1.00000000E+00  0.00000000E+00
  0.00000000E+00  0.00000000E+00  1.00000000E+00  0.00000000E+00  0.00000000E+00
  0.00000000E+00  1.00000000E+00  0.00000000E+00  0.00000000E+00  0.00000000E+00
  1.00000000E+00  0.00000000E+00  0.00000000E+00  0.00000000E+00  1.00000000E+00
  0.00000000E+00  0.00000000E+00  0.00000000E+00
Virial Ratio                               R      2.260329596967237E+00
SCF Energy                                 R     -6.515870558763520E+02
Total Energy                               R     -6.515870558763520E+02
S**2                                       R      1.964554546619681E+00
S**2 after annihilation                    R      4.057323967638353E+00
RMS Density                                R      3.224940086350510E-09
Job Status                                 I                1
Nuclear derivative order                   I                0
External E-field                           R   N=          35
  0.00000000E+00  0.00000000E+00  0.00000000E+00  0.00000000E+00  0.00000000E+00
  0.00000000E+00  0.00000000E+00  0.00000000E+00  0.00000000E+00  0.00000000E+00
  0.00000000E+00  0.00000000E+00  0.00000000E+00  0.00000000E+00  0.00000000E+00
  0.00000000E+00  0.00000000E+00  0.00000000E+00  0.00000000E+00  0.00000000E+00
  0.00000000E+00  0.00000000E+00  0.00000000E+00  0.00000000E+00  0.00000000E+00
  0.00000000E+00  0.00000000E+00  0.00000000E+00  0.00000000E+00  0.00000000E+00
  0.00000000E+00  0.00000000E+00  0.00000000E+00  0.00000000E+00  0.00000000E+00
IOpCl                                      I                1
IROHF                                      I                0
Alpha Orbital Energies                     R   N=         138
 -2.09395747E+01 -2.09190062E+01 -1.59421534E+01 -1.59421534E+01 -5.74275583E+00
 -5.74274103E+00 -4.11018569E+00 -4.10990019E+00 -4.10832460E+00 -4.10821713E+00
 -4.02284995E+00 -4.02282414E+00 -1.58766331E+00 -1.54290308E+00 -1.54220507E+00
 -1.53839051E+00 -1.25178465E+00 -1.20603777E+00 -1.18561317E+00 -1.17694239E+00
 -1.15455748E+00 -1.14390453E+00 -1.14177914E+00 -1.13968919E+00 -1.13772586E+00
 -1.12449592E+00 -1.02217019E+00 -1.02058451E+00 -1.01919843E+00 -1.01855602E+00
 -9.34400357E-01 -8.73049974E-01 -8.59038418E-01 -8.56106244E-01 -8.48918875E-01
 -8.35640640E-01 -2.93859144E-01 -2.55754389E-01 -2.27805941E-01 -2.09832626E-01
 -1.85886310E-01 -1.71100153E-01 -1.63586369E-01 -1.54217211E-01 -1.54188058E-01
 -1.13630090E-01 -1.06763900E-01 -7.32923643E-02 -7.28305734E-02 -4.53516464E-02
 -1.87361597E-02 -1.71668369E-02 -5.81286732E-03  6.70215720E-03  1.06988151E-02
  2.45509233E-02  7.59301653E-02  1.16586770E-01  1.50248531E-01  2.25649415E-01
  3.68011880E-01  3.94826491E-01  4.06959512E-01  4.35218611E-01  5.05135261E-01
  5.66675129E-01  5.74153627E-01  5.99895896E-01  6.00832496E-01  6.29734053E-01
  6.60513609E-01  6.73013259E-01  6.83740970E-01  7.27519330E-01  7.68749998E-01
  7.69001786E-01  7.77843887E-01  7.82973437E-01  8.10780203E-01  8.14975172E-01
  8.73686057E-01  9.66793238E-01  9.83545419E-01  9.98167093E-01  1.03553122E+00
  1.06961959E+00  1.09690498E+00  1.09900898E+00  1.13823261E+00  1.21984805E+00
  1.22896674E+00  1.24398951E+00  1.26271561E+00  1.37837250E+00  1.40048448E+00
  1.40048514E+00  1.43985059E+00  1.48585874E+00  1.63772627E+00  1.69313364E+00
  1.70577719E+00  1.73548109E+00  1.78009700E+00  1.80255804E+00  1.96947360E+00
  1.97576129E+00  1.97702405E+00  1.98232674E+00  2.17868536E+00  2.19427540E+00
  2.45500679E+00  2.45527506E+00  2.45932059E+00  2.46506893E+00  2.64441779E+00
  2.66194515E+00  2.67388972E+00  2.68504952E+00  2.68774836E+00  2.69278278E+00
  2.70161119E+00  2.72172127E+00  2.74957005E+00  2.76443400E+00  2.88034076E+00
  2.95127222E+00  2.95311189E+00  2.95652413E+00  2.96272837E+00  2.98834362E+00
  3.44373308E+00  4.35871570E+00  4.50894852E+00  5.32477428E+00  5.63648573E+00
  5.71453137E+00  2.96343405E+01  3.33117920E+01
Beta Orbital Energies                      R   N=         138
 -2.09772913E+01 -2.09540683E+01 -1.59424233E+01 -1.59424232E+01 -5.63323468E+00
 -5.63322569E+00 -3.99354468E+00 -3.99351042E+00 -3.92871530E+00 -3.92816359E+00
 -3.92646858E+00 -3.92637840E+00 -1.73538567E+00 -1.67988336E+00 -1.54278166E+00
 -1.54274509E+00 -1.18390105E+00 -1.15373838E+00 -1.12736745E+00 -1.10732897E+00
 -1.10067432E+00 -1.09672724E+00 -1.09525061E+00 -1.08084345E+00 -1.02253307E+00