title
Stability RHF                                                         CC-pVDZ
Number of atoms                            I               12
Info1-9                                    I   N=           9
          21          21           0           0           0         110
           7           1           2
Full Title                                 C   N=           1
title
Route                                      C   N=           7
#p UHF/cc-pVDZ 6D 10F nosymm int=(nobasistransform,acc2e=10)
 guess=mix stable=opt
Charge                                     I                0
Multiplicity                               I                1
Number of electrons                        I               42
Number of alpha electrons                  I               21
Number of beta electrons                   I               21
Number of basis functions                  I              120
Number of independent functions            I              120
Number of point charges in /Mol/           I                0
Number of translation vectors              I                0
Atomic numbers                             I   N=          12
           6           6           6           6           6           6
           1           1           1           1           1           1
Nuclear charges                            R   N=          12
  6.00000000E+00  6.00000000E+00  6.00000000E+00  6.00000000E+00  6.00000000E+00
  6.00000000E+00  1.00000000E+00  1.00000000E+00  1.00000000E+00  1.00000000E+00
  1.00000000E+00  1.00000000E+00
Current cartesian coordinates              R   N=          36
  0.00000000E+00  2.62249200E+00  0.00000000E+00  2.27114467E+00  1.31124694E+00
  0.00000000E+00  2.27114467E+00 -1.31124694E+00  0.00000000E+00  0.00000000E+00
 -2.62249200E+00  0.00000000E+00 -2.27114467E+00 -1.31124694E+00  0.00000000E+00
 -2.27114467E+00  1.31124694E+00  0.00000000E+00  0.00000000E+00  4.66511775E+00
  0.00000000E+00  4.04010973E+00  2.33255888E+00  0.00000000E+00  4.04010973E+00
 -2.33255888E+00  0.00000000E+00  0.00000000E+00 -4.66511775E+00  0.00000000E+00
 -4.04010973E+00 -2.33255888E+00  0.00000000E+00 -4.04010973E+00  2.33255888E+00
  0.00000000E+00
Number of symbols in /Mol/                 I                0
Force Field                                I                0
Atom Types                                 C   N=          12



Int Atom Types                             I   N=          12
           0           0           0           0           0           0
           0           0           0           0           0           0
MM charges                                 R   N=          12
  0.00000000E+00  0.00000000E+00  0.00000000E+00  0.00000000E+00  0.00000000E+00
  0.00000000E+00  0.00000000E+00  0.00000000E+00  0.00000000E+00  0.00000000E+00
  0.00000000E+00  0.00000000E+00
Integer atomic weights                     I   N=          12
          12          12          12          12          12          12
           1           1           1           1           1           1
Real atomic weights                        R   N=          12
  1.20000000E+01  1.20000000E+01  1.20000000E+01  1.20000000E+01  1.20000000E+01
  1.20000000E+01  1.00782504E+00  1.00782504E+00  1.00782504E+00  1.00782504E+00
  1.00782504E+00  1.00782504E+00
Atom fragment info                         I   N=          12
           0           0           0           0           0           0
           0           0           0           0           0           0
Atom residue num                           I   N=          12
           0           0           0           0           0           0
           0           0           0           0           0           0
Nuclear spins                              I   N=          12
           0           0           0           0           0           0
           1           1           1           1           1           1
Nuclear ZEff                               R   N=          12
 -3.60000000E+00 -3.60000000E+00 -3.60000000E+00 -3.60000000E+00 -3.60000000E+00
 -3.60000000E+00 -1.00000000E+00 -1.00000000E+00 -1.00000000E+00 -1.00000000E+00
 -1.00000000E+00 -1.00000000E+00
Nuclear ZNuc                               R   N=          12
  6.00000000E+00  6.00000000E+00  6.00000000E+00  6.00000000E+00  6.00000000E+00
  6.00000000E+00  1.00000000E+00  1.00000000E+00  1.00000000E+00  1.00000000E+00
  1.00000000E+00  1.00000000E+00
Nuclear QMom                               R   N=          12
  0.00000000E+00  0.00000000E+00  0.00000000E+00  0.00000000E+00  0.00000000E+00
  0.00000000E+00  0.00000000E+00  0.00000000E+00  0.00000000E+00  0.00000000E+00
  0.00000000E+00  0.00000000E+00
Nuclear GFac                               R   N=          12
  0.00000000E+00  0.00000000E+00  0.00000000E+00  0.00000000E+00  0.00000000E+00
  0.00000000E+00  2.79284600E+00  2.79284600E+00  2.79284600E+00  2.79284600E+00
  2.79284600E+00  2.79284600E+00
MicOpt                                     I   N=          12
          -1          -1          -1          -1          -1          -1
          -1          -1          -1          -1          -1          -1
Number of residues                         I                0
Number of secondary structures             I                0
Number of contracted shells                I               54
Number of primitive shells                 I              162
Pure/Cartesian d shells                    I                1
Pure/Cartesian f shells                    I                1
Highest angular momentum                   I                2
Largest degree of contraction              I                8
Shell types                                I   N=          54
           0           0           0           1           1           2
           0           0           0           1           1           2
           0           0           0           1           1           2
           0           0           0           1           1           2
           0           0           0           1           1           2
           0           0           0           1           1           2
           0           0           1           0           0           1
           0           0           1           0           0           1
           0           0           1           0           0           1
Number of primitives per shell             I   N=          54
           8           8           1           3           1           1
           8           8           1           3           1           1
           8           8           1           3           1           1
           8           8           1           3           1           1
           8           8           1           3           1           1
           8           8           1           3           1           1
           3           1           1           3           1           1
           3           1           1           3           1           1
           3           1           1           3           1           1
Shell to atom map                          I   N=          54
           1           1           1           1           1           1
           2           2           2           2           2           2
           3           3           3           3           3           3
           4           4           4           4           4           4
           5           5           5           5           5           5
           6           6           6           6           6           6
           7           7           7           8           8           8
           9           9           9          10          10          10
          11          11          11          12          12          12
Primitive exponents                        R   N=         162
  6.66500000E+03  1.00000000E+03  2.28000000E+02  6.47100000E+01  2.10600000E+01
  7.49500000E+00  2.79700000E+00  5.21500000E-01  6.66500000E+03  1.00000000E+03
  2.28000000E+02  6.47100000E+01  2.10600000E+01  7.49500000E+00  2.79700000E+00
  5.21500000E-01  1.59600000E-01  9.43900000E+00  2.00200000E+00  5.45600000E-01
  1.51700000E-01  5.50000000E-01  6.66500000E+03  1.00000000E+03  2.28000000E+02
  6.47100000E+01  2.10600000E+01  7.49500000E+00  2.79700000E+00  5.21500000E-01
  6.66500000E+03  1.00000000E+03  2.28000000E+02  6.47100000E+01  2.10600000E+01
  7.49500000E+00  2.79700000E+00  5.21500000E-01  1.59600000E-01  9.43900000E+00
  2.00200000E+00  5.45600000E-01  1.51700000E-01  5.50000000E-01  6.66500000E+03
  1.00000000E+03  2.28000000E+02  6.47100000E+01  2.10600000E+01  7.49500000E+00
  2.79700000E+00  5.21500000E-01  6.66500000E+03  1.00000000E+03  2.28000000E+02
  6.47100000E+01  2.10600000E+01  7.49500000E+00  2.79700000E+00  5.21500000E-01
  1.59600000E-01  9.43900000E+00  2.00200000E+00  5.45600000E-01  1.51700000E-01
  5.50000000E-01  6.66500000E+03  1.00000000E+03  2.28000000E+02  6.47100000E+01
  2.10600000E+01  7.49500000E+00  2.79700000E+00  5.21500000E-01  6.66500000E+03
  1.00000000E+03  2.28000000E+02  6.47100000E+01  2.10600000E+01  7.49500000E+00
  2.79700000E+00  5.21500000E-01  1.59600000E-01  9.43900000E+00  2.00200000E+00
  5.45600000E-01  1.51700000E-01  5.50000000E-01  6.66500000E+03  1.00000000E+03
  2.28000000E+02  6.47100000E+01  2.10600000E+01  7.49500000E+00  2.79700000E+00
  5.21500000E-01  6.66500000E+03  1.00000000E+03  2.28000000E+02  6.47100000E+01
  2.10600000E+01  7.49500000E+00  2.79700000E+00  5.21500000E-01  1.59600000E-01
  9.43900000E+00  2.00200000E+00  5.45600000E-01  1.51700000E-01  5.50000000E-01
  6.66500000E+03  1.00000000E+03  2.28000000E+02  6.47100000E+01  2.10600000E+01
  7.49500000E+00  2.79700000E+00  5.21500000E-01  6.66500000E+03  1.00000000E+03
  2.28000000E+02  6.47100000E+01  2.10600000E+01  7.49500000E+00  2.79700000E+00
  5.21500000E-01  1.59600000E-01  9.43900000E+00  2.00200000E+00  5.45600000E-01
  1.51700000E-01  5.50000000E-01  1.30100000E+01  1.96200000E+00  4.44600000E-01
  1.22000000E-01  7.27000000E-01  1.30100000E+01  1.96200000E+00  4.44600000E-01
  1.22000000E-01  7.27000000E-01  1.30100000E+01  1.96200000E+00  4.44600000E-01
  1.22000000E-01  7.27000000E-01  1.30100000E+01  1.96200000E+00  4.44600000E-01
  1.22000000E-01  7.27000000E-01  1.30100000E+01  1.96200000E+00  4.44600000E-01
  1.22000000E-01  7.27000000E-01  1.30100000E+01  1.96200000E+00  4.44600000E-01
  1.22000000E-01  7.27000000E-01
Contraction coefficients                   R   N=         162
  6.91583963E-04  5.32579615E-03  2.70607210E-02  1.01656846E-01  2.74574824E-01
  4.48294319E-01  2.84902611E-01  1.51948592E-02 -2.93269653E-04 -2.31803547E-03
 -1.14997860E-02 -4.68267270E-02 -1.28466169E-01 -3.01266272E-01 -2.55630702E-01
  1.09379336E+00  1.00000000E+00  5.69792516E-02  3.13207212E-01  7.60376742E-01
  1.00000000E+00  1.00000000E+00  6.91583963E-04  5.32579615E-03  2.70607210E-02
  1.01656846E-01  2.74574824E-01  4.48294319E-01  2.84902611E-01  1.51948592E-02
 -2.93269653E-04 -2.31803547E-03 -1.14997860E-02 -4.68267270E-02 -1.28466169E-01
 -3.01266272E-01 -2.55630702E-01  1.09379336E+00  1.00000000E+00  5.69792516E-02
  3.13207212E-01  7.60376742E-01  1.00000000E+00  1.00000000E+00  6.91583963E-04
  5.32579615E-03  2.70607210E-02  1.01656846E-01  2.74574824E-01  4.48294319E-01
  2.84902611E-01  1.51948592E-02 -2.93269653E-04 -2.31803547E-03 -1.14997860E-02
 -4.68267270E-02 -1.28466169E-01 -3.01266272E-01 -2.55630702E-01  1.09379336E+00
  1.00000000E+00  5.69792516E-02  3.13207212E-01  7.60376742E-01  1.00000000E+00
  1.00000000E+00  6.91583963E-04  5.32579615E-03  2.70607210E-02  1.01656846E-01
  2.74574824E-01  4.48294319E-01  2.84902611E-01  1.51948592E-02 -2.93269653E-04
 -2.31803547E-03 -1.14997860E-02 -4.68267270E-02 -1.28466169E-01 -3.01266272E-01
 -2.55630702E-01  1.09379336E+00  1.00000000E+00  5.69792516E-02  3.13207212E-01
  7.60376742E-01  1.00000000E+00  1.00000000E+00  6.91583963E-04  5.32579615E-03
  2.70607210E-02  1.01656846E-01  2.74574824E-01  4.48294319E-01  2.84902611E-01
  1.51948592E-02 -2.93269653E-04 -2.31803547E-03 -1.14997860E-02 -4.68267270E-02
 -1.28466169E-01 -3.01266272E-01 -2.55630702E-01  1.09379336E+00  1.00000000E+00
  5.69792516E-02  3.13207212E-01  7.60376742E-01  1.00000000E+00  1.00000000E+00
  6.91583963E-04  5.32579615E-03  2.70607210E-02  1.01656846E-01  2.74574824E-01
  4.48294319E-01  2.84902611E-01  1.51948592E-02 -2.93269653E-04 -2.31803547E-03
 -1.14997860E-02 -4.68267270E-02 -1.28466169E-01 -3.01266272E-01 -2.55630702E-01
  1.09379336E+00  1.00000000E+00  5.69792516E-02  3.13207212E-01  7.60376742E-01
  1.00000000E+00  1.00000000E+00  3.34987264E-02  2.34800801E-01  8.13682958E-01
  1.00000000E+00  1.00000000E+00  3.34987264E-02  2.34800801E-01  8.13682958E-01
  1.00000000E+00  1.00000000E+00  3.34987264E-02  2.34800801E-01  8.13682958E-01
  1.00000000E+00  1.00000000E+00  3.34987264E-02  2.34800801E-01  8.13682958E-01
  1.00000000E+00  1.00000000E+00  3.34987264E-02  2.34800801E-01  8.13682958E-01
  1.00000000E+00  1.00000000E+00  3.34987264E-02  2.34800801E-01  8.13682958E-01
  1.00000000E+00  1.00000000E+00
Coordinates of each shell                  R   N=         162
  0.00000000E+00  2.62249200E+00  0.00000000E+00  0.00000000E+00  2.62249200E+00
  0.00000000E+00  0.00000000E+00  2.62249200E+00  0.00000000E+00  0.00000000E+00
  2.62249200E+00  0.00000000E+00  0.00000000E+00  2.62249200E+00  0.00000000E+00
  0.00000000E+00  2.62249200E+00  0.00000000E+00  2.27114467E+00  1.31124694E+00
  0.00000000E+00  2.27114467E+00  1.31124694E+00  0.00000000E+00  2.27114467E+00
  1.31124694E+00  0.00000000E+00  2.27114467E+00  1.31124694E+00  0.00000000E+00
  2.27114467E+00  1.31124694E+00  0.00000000E+00  2.27114467E+00  1.31124694E+00
  0.00000000E+00  2.27114467E+00 -1.31124694E+00  0.00000000E+00  2.27114467E+00
 -1.31124694E+00  0.00000000E+00  2.27114467E+00 -1.31124694E+00  0.00000000E+00
  2.27114467E+00 -1.31124694E+00  0.00000000E+00  2.27114467E+00 -1.31124694E+00
  0.00000000E+00  2.27114467E+00 -1.31124694E+00  0.00000000E+00  0.00000000E+00
 -2.62249200E+00  0.00000000E+00  0.00000000E+00 -2.62249200E+00  0.00000000E+00
  0.00000000E+00 -2.62249200E+00  0.00000000E+00  0.00000000E+00 -2.62249200E+00
  0.00000000E+00  0.00000000E+00 -2.62249200E+00  0.00000000E+00  0.00000000E+00
 -2.62249200E+00  0.00000000E+00 -2.27114467E+00 -1.31124694E+00  0.00000000E+00
 -2.27114467E+00 -1.31124694E+00  0.00000000E+00 -2.27114467E+00 -1.31124694E+00
  0.00000000E+00 -2.27114467E+00 -1.31124694E+00  0.00000000E+00 -2.27114467E+00
 -1.31124694E+00  0.00000000E+00 -2.27114467E+00 -1.31124694E+00  0.00000000E+00
 -2.27114467E+00  1.31124694E+00  0.00000000E+00 -2.27114467E+00  1.31124694E+00
  0.00000000E+00 -2.27114467E+00  1.31124694E+00  0.00000000E+00 -2.27114467E+00
  1.31124694E+00  0.00000000E+00 -2.27114467E+00  1.31124694E+00  0.00000000E+00
 -2.27114467E+00  1.31124694E+00  0.00000000E+00  0.00000000E+00  4.66511775E+00
  0.00000000E+00  0.00000000E+00  4.66511775E+00  0.00000000E+00  0.00000000E+00
  4.66511775E+00  0.00000000E+00  4.04010973E+00  2.33255888E+00  0.00000000E+00
  4.04010973E+00  2.33255888E+00  0.00000000E+00  4.04010973E+00  2.33255888E+00
  0.00000000E+00  4.04010973E+00 -2.33255888E+00  0.00000000E+00  4.04010973E+00
 -2.33255888E+00  0.00000000E+00  4.04010973E+00 -2.33255888E+00  0.00000000E+00
  0.00000000E+00 -4.66511775E+00  0.00000000E+00  0.00000000E+00 -4.66511775E+00
  0.00000000E+00  0.00000000E+00 -4.66511775E+00  0.00000000E+00 -4.04010973E+00
 -2.33255888E+00  0.00000000E+00 -4.04010973E+00 -2.33255888E+00  0.00000000E+00
 -4.04010973E+00 -2.33255888E+00  0.00000000E+00 -4.04010973E+00  2.33255888E+00
  0.00000000E+00 -4.04010973E+00  2.33255888E+00  0.00000000E+00 -4.04010973E+00
  2.33255888E+00  0.00000000E+00
Num ILSW                                   I              100
ILSW                                       I   N=         100
           0           1           0           0           2           1
           0           0           0           0           0          -1
           5           0           0           1           0           0
           0           0           0           0           0           0
           1           1           0           0           0           0
           0           0      100000           0          -1           0
           0           0           0           0           0           0
           0           0           0           1           0           0
           0 -2000000000           1           0           0           0
           0           0           4          52           0           0
           0           0           0           0           0           0
           0           0           0          12           0           1
           0           0           0           0           0           0
           0           0           0           0           0           0
           0           0           0           0           0           0
           0           0           0           0           0           0
           0           0           0           0
Num RLSW                                   I               52
RLSW                                       R   N=          52
  1.00000000E+00  1.00000000E+00  1.00000000E+00  1.00000000E+00  1.00000000E+00
  0.00000000E+00  0.00000000E+00  1.00000000E+00  0.00000000E+00  0.00000000E+00
  0.00000000E+00  0.00000000E+00  1.00000000E+00  0.00000000E+00  0.00000000E+00
  0.00000000E+00  0.00000000E+00  1.00000000E+00  0.00000000E+00  0.00000000E+00
  0.00000000E+00  0.00000000E+00  1.00000000E+00  0.00000000E+00  0.00000000E+00
  0.00000000E+00  0.00000000E+00  1.00000000E+00  0.00000000E+00  0.00000000E+00
  0.00000000E+00  0.00000000E+00  1.00000000E+00  0.00000000E+00  0.00000000E+00
  0.00000000E+00  0.00000000E+00  0.00000000E+00  1.00000000E+00  1.00000000E+00
  0.00000000E+00  1.00000000E+00  0.00000000E+00  0.00000000E+00  0.00000000E+00
  0.00000000E+00  0.00000000E+00  0.00000000E+00  0.00000000E+00  0.00000000E+00
  0.00000000E+00  0.00000000E+00
MxBond                                     I                3
NBond                                      I   N=          12
           3           3           3           3           3           3
           1           1           1           1           1           1
IBond                                      I   N=          36
           2           6           7           1           3           8
           2           4           9           3           5          10
           4           6          11           1           5          12
           1           0           0           2           0           0
           3           0           0           4           0           0
           5           0           0           6           0           0
RBond                                      R   N=          36
  1.50000000E+00  1.50000000E+00  1.00000000E+00  1.50000000E+00  1.50000000E+00
  1.00000000E+00  1.50000000E+00  1.50000000E+00  1.00000000E+00  1.50000000E+00
  1.50000000E+00  1.00000000E+00  1.50000000E+00  1.50000000E+00  1.00000000E+00
  1.50000000E+00  1.50000000E+00  1.00000000E+00  1.00000000E+00  0.00000000E+00
  0.00000000E+00  1.00000000E+00  0.00000000E+00  0.00000000E+00  1.00000000E+00
  0.00000000E+00  0.00000000E+00  1.00000000E+00  0.00000000E+00  0.00000000E+00
  1.00000000E+00  0.00000000E+00  0.00000000E+00  1.00000000E+00  0.00000000E+00
  0.00000000E+00
Virial Ratio                               R      2.000986119180149E+00
SCF Energy                                 R     -2.307253089155552E+02
Total Energy                               R     -2.307253089155552E+02
S**2                                       R      3.834066923774202E-01
S**2 after annihilation                    R      2.232100522763895E-01
RMS Density                                R      6.065306086713091E-09
Job Status                                 I                1
Nuclear derivative order                   I                0
External E-field                           R   N=          35
  0.00000000E+00  0.00000000E+00  0.00000000E+00  0.00000000E+00  0.00000000E+00
  0.00000000E+00  0.00000000E+00  0.00000000E+00  0.00000000E+00  0.00000000E+00
  0.00000000E+00  0.00000000E+00  0.00000000E+00  0.00000000E+00  0.00000000E+00
  0.00000000E+00  0.00000000E+00  0.00000000E+00  0.00000000E+00  0.00000000E+00
  0.00000000E+00  0.00000000E+00  0.00000000E+00  0.00000000E+00  0.00000000E+00
  0.00000000E+00  0.00000000E+00  0.00000000E+00  0.00000000E+00  0.00000000E+00
  0.00000000E+00  0.00000000E+00  0.00000000E+00  0.00000000E+00  0.00000000E+00
IOpCl                                      I                0
IROHF                                      I                0
Alpha Orbital Energies                     R   N=         120
  0.00000000E+00  0.00000000E+00  0.00000000E+00  0.00000000E+00  0.00000000E+00
  0.00000000E+00  0.00000000E+00  0.00000000E+00  0.00000000E+00  0.00000000E+00
  0.00000000E+00  0.00000000E+00  0.00000000E+00  0.00000000E+00  0.00000000E+00
  0.00000000E+00  0.00000000E+00  0.00000000E+00  0.00000000E+00  0.00000000E+00
  0.00000000E+00  0.00000000E+00  0.00000000E+00  0.00000000E+00  0.00000000E+00
  0.00000000E+00  0.00000000E+00  0.00000000E+00  0.00000000E+00  0.00000000E+00
  0.00000000E+00  0.00000000E+00  0.00000000E+00  0.00000000E+00  0.00000000E+00
  0.00000000E+00  0.00000000E+00  0.00000000E+00  0.00000000E+00  0.00000000E+00
  0.00000000E+00  0.00000000E+00  0.00000000E+00  0.00000000E+00  0.00000000E+00
  0.00000000E+00  0.00000000E+00  0.00000000E+00  0.00000000E+00  0.00000000E+00
  0.00000000E+00  0.00000000E+00  0.00000000E+00  0.00000000E+00  0.00000000E+00
  0.00000000E+00  0.00000000E+00  0.00000000E+00  0.00000000E+00  0.00000000E+00
  0.00000000E+00  0.00000000E+00  0.00000000E+00  0.00000000E+00  0.00000000E+00
  0.00000000E+00  0.00000000E+00  0.00000000E+00  0.00000000E+00  0.00000000E+00
  0.00000000E+00  0.00000000E+00  0.00000000E+00  0.00000000E+00  0.00000000E+00
  0.00000000E+00  0.00000000E+00  0.00000000E+00  0.00000000E+00  0.00000000E+00
  0.00000000E+00  0.00000000E+00  0.00000000E+00  0.00000000E+00  0.00000000E+00
  0.00000000E+00  0.00000000E+00  0.00000000E+00  0.00000000E+00  0.00000000E+00
  0.00000000E+00  0.00000000E+00  0.00000000E+00  0.00000000E+00  0.00000000E+00
  0.00000000E+00  0.00000000E+00  0.00000000E+00  0.00000000E+00  0.00000000E+00
  0.00000000E+00  0.00000000E+00  0.00000000E+00  0.00000000E+00  0.00000000E+00
  0.00000000E+00  0.00000000E+00  0.00000000E+00  0.00000000E+00  0.00000000E+00
  0.00000000E+00  0.00000000E+00  0.00000000E+00  0.00000000E+00  0.00000000E+00
  0.00000000E+00  0.00000000E+00  0.00000000E+00  0.00000000E+00  0.00000000E+00
Alpha MO coefficients                      R   N=       14400
 -4.08869626E-01  2.72428335E-03  1.71883994E-03 -5.87135181E-11 -1.87583562E-03
  2.36596079E-16 -1.29260820E-11  4.96240577E-05  6.35388439E-18  1.04813407E-03
  9.83658958E-04  9.49603692E-04  3.97133145E-12  1.20585790E-17  9.31705480E-18
 -4.08902415E-01  2.53511927E-03  3.17965940E-03 -1.71753701E-03 -9.91595442E-04
  2.11919796E-16 -6.53776381E-04 -3.77451649E-04  1.72025680E-16  1.37951782E-03
  1.35613025E-03  1.00388708E-03  2.33872720E-05 -9.91888184E-18  5.69141067E-18
 -4.08865028E-01  2.72426662E-03  1.71880890E-03 -1.62453713E-03  9.37902582E-04
 -8.23919694E-18  4.29748268E-05 -2.48159788E-05 -7.56859435E-18  9.99768406E-04
  1.03200627E-03  9.49591374E-04  3.22388476E-05  9.24083592E-18  1.82903310E-17
 -4.08907061E-01  2.53513303E-03  3.17969635E-03 -3.22407602E-11  1.98322208E-03
 -2.06774266E-16 -9.86369198E-12  7.54914291E-04 -1.74895474E-16  1.34444673E-03
  1.39122343E-03  1.00389980E-03 -2.47742748E-12  4.12870138E-18 -4.14036683E-18
 -4.08865044E-01  2.72426671E-03  1.71880898E-03  1.62453714E-03  9.37902653E-04
 -8.94966520E-17 -4.29748286E-05 -2.48159651E-05 -6.70420745E-17  9.99768442E-04
  1.03200632E-03  9.49591414E-04 -3.22388482E-05 -1.21872257E-17  8.01738521E-18
 -4.08902439E-01  2.53511937E-03  3.17965957E-03  1.71753701E-03 -9.91595481E-04
  7.25873176E-17  6.53776393E-04 -3.77451668E-04  5.45714815E-17  1.37951789E-03
  1.35613032E-03  1.00388714E-03 -2.33872722E-05  9.66399140E-18  1.11618565E-17
  6.83018972E-04 -2.60214870E-04 -3.00532054E-13 -1.16072640E-04  8.22073185E-18
  5.06096350E-04 -7.97585746E-05 -2.60938313E-05 -1.50653746E-05  7.47376053E-18
  6.82997772E-04 -2.60218467E-04 -1.00519659E-04  5.80349561E-05 -4.26194720E-19
  5.06116931E-04 -7.97555831E-05  3.65559407E-13  3.01333144E-05 -7.24230625E-18
  6.82997810E-04 -2.60218472E-04  1.00519663E-04  5.80349588E-05 -3.56428120E-18
  5.06096426E-04 -7.97585689E-05  2.60938390E-05 -1.50653786E-05  2.55115605E-18
 -5.78144034E-01  2.93679014E-03  3.11507608E-03 -2.86756825E-05 -7.63519543E-04
 -5.57588962E-16 -6.66763467E-06 -2.01748596E-04 -2.28700096E-16  1.44225355E-03
  1.29657885E-03  1.39900241E-03  1.82615484E-06  4.33106420E-17  1.52776873E-17
 -2.82404595E-01  1.25040886E-03  1.90093901E-03 -1.34377362E-03  1.54009556E-03
 -5.81669587E-16 -5.03592263E-04  4.05134182E-04 -3.09269879E-16  9.20555411E-04
  7.72783026E-04  7.22253600E-04 -7.37945461E-05  3.60347261E-17  3.01488915E-17
  2.95788503E-01 -1.50252832E-03 -1.59370052E-03  1.25635930E-03  1.39477961E-03
 -6.44823097E-16  3.02846318E-04  3.18123164E-04 -3.13044558E-16 -7.69682232E-04
 -6.31557957E-04 -7.15753405E-04 -9.57319115E-05  7.02070495E-17 -1.14712007E-18
  5.78256607E-01 -2.56032655E-03 -3.89244226E-03 -3.08419551E-05 -8.06094432E-04
 -1.26828453E-15 -9.26733486E-06 -4.78245117E-04 -8.77035325E-16 -1.77132377E-03
 -1.69597080E-03 -1.47889952E-03 -1.70357444E-06  1.62129189E-17 -6.52787730E-17
  2.82349603E-01 -1.43426274E-03 -1.52129136E-03 -1.25532663E-03  1.42848718E-03
 -9.17218736E-16 -3.02118882E-04  3.26242174E-04 -5.01867952E-16 -7.40066444E-04
 -5.97509783E-04 -6.83233761E-04  9.49518400E-05 -6.98873505E-17 -2.80434928E-17
 -2.95846143E-01  1.30992361E-03  1.99141832E-03  1.34458016E-03  1.50401716E-03
 -1.06913949E-15  5.08585979E-04  3.91550186E-04 -7.09742862E-16  9.59138404E-04
  8.14797233E-04  7.56630532E-04  7.38185914E-05 -4.07992518E-17  4.79598786E-17
  1.81757006E-03  1.62780602E-05 -1.39083300E-08 -2.10145376E-04 -2.22312863E-17
  7.94582562E-04  2.78602313E-05 -6.79701743E-05 -5.49123238E-05 -1.70912166E-17
 -9.29887856E-04 -8.31814580E-06  9.35541230E-05 -5.29855684E-05 -2.39282185E-17
 -1.62702764E-03 -5.70657692E-05  2.08675946E-07 -1.76753058E-04 -4.17453588E-17
 -8.87638724E-04 -7.93989574E-06 -8.93307222E-05 -5.05311322E-05 -3.49027463E-17
  8.32402711E-04  2.91866455E-05  7.16326714E-05 -5.67859058E-05 -3.43478289E-17
  7.75900507E-03 -3.94133002E-05 -4.18060211E-05 -2.13670183E-03  1.02468352E-05
 -2.58275194E-16 -4.96823517E-04  2.70757433E-06 -4.85617221E-17 -1.93558139E-05
 -1.74007869E-05 -1.87753674E-05  1.36071699E-04  4.37565839E-17  5.54399956E-17
  5.04663446E-01 -2.23448546E-03 -3.39704826E-03  4.80883550E-05  1.32372755E-03
  2.41461107E-18  1.92839482E-04  5.00745466E-04  2.47862505E-16 -1.45007556E-03
 -1.57595020E-03 -1.29068317E-03  1.88637846E-06 -9.70555742E-18  1.13803066E-16
  4.96806246E-01 -2.52362507E-03 -2.67680694E-03  2.16190978E-05 -1.27476566E-03
 -1.17751920E-16  2.30424292E-05 -3.06808862E-04 -2.62097410E-17 -1.09324825E-03
 -1.26026632E-03 -1.20217902E-03 -2.77831009E-05  3.11548572E-17  1.16103671E-17
 -7.76048450E-03  3.43608211E-05  5.22384619E-05 -2.29812467E-03  1.08181681E-05
 -5.65759762E-16 -6.90536214E-04  6.41828150E-06 -3.95233976E-16  2.37720261E-05
  2.27607507E-05  1.98475502E-05 -1.26938293E-04  2.48455451E-17 -2.82824769E-17
 -5.04565143E-01  2.56303821E-03  2.71861165E-03  5.53270959E-05  1.23687601E-03
 -5.45335952E-16  3.11613571E-05  2.98161157E-04 -3.26684426E-16  1.11350982E-03
  1.27676101E-03  1.22095411E-03 -3.03421717E-05 -3.25865890E-17 -2.42664274E-17
 -4.96903019E-01  2.20012440E-03  3.34481082E-03  1.20091363E-05 -1.36458111E-03
 -6.95189399E-16  1.79255506E-04 -5.11437386E-04 -5.06461974E-16  1.42484908E-03
  1.55464403E-03  1.27083578E-03 -9.46677144E-08 -1.66203076E-17  3.34836584E-17
 -2.43927842E-05 -2.18468697E-07 -1.03628393E-06  2.82026597E-06 -6.74825149E-18
 -1.41995716E-03 -4.97994941E-05  1.37387923E-04  7.05522761E-05  4.48012468E-18
 -1.56185795E-03 -1.39838344E-05  1.56121832E-04 -9.07489994E-05 -3.84817859E-18
  2.18355029E-05  7.65849984E-07  1.55490130E-05  2.37211205E-06 -1.90522001E-17
  1.58625008E-03  1.42020361E-05  1.58576238E-04  9.21382461E-05 -2.11450541E-17
  1.39812223E-03  4.90339183E-05  1.35514387E-04 -6.90532321E-05 -2.36909078E-17
 -5.78208903E-01  1.67887865E-03  4.21757339E-03 -1.11650770E-06  1.39330326E-03
 -8.37743003E-16 -1.92298448E-07 -1.82349937E-04 -5.06328348E-16  1.05453619E-03
  1.14262665E-03  1.44438723E-03  6.15653733E-08 -3.95048834E-17  1.08103561E-16
  2.89385184E-01 -5.56812158E-04 -2.37905427E-03 -2.11378685E-03  2.20695723E-03
 -1.28428778E-15 -3.12050807E-04  7.74403848E-04 -9.14874947E-16 -6.24713629E-04
 -7.58555276E-04 -7.48989405E-04 -6.03766880E-05  6.30309232E-17  1.51018596E-17
  2.88937569E-01 -8.38967288E-04 -2.10755867E-03 -2.02592738E-03 -2.11655344E-03
 -5.65905879E-16 -1.66167701E-04 -4.70051965E-04 -2.78271793E-16 -4.42284255E-04
 -6.55666006E-04 -7.21775854E-04  1.00472942E-04  2.29216724E-17 -6.73662541E-17
 -5.78423408E-01  1.11292925E-03  4.75525408E-03  1.16484765E-06 -1.45340336E-03
 -3.32816275E-16  3.24427037E-07  2.33763012E-04 -1.17758946E-16  1.35880294E-03
  1.40606293E-03  1.49708236E-03  3.81089396E-08 -1.26205626E-17 -3.52546623E-17
  2.89277872E-01 -8.39955368E-04 -2.11004093E-03  2.02607932E-03 -2.11517649E-03
 -3.50467194E-16  1.65978610E-04 -4.69939091E-04 -1.30619107E-16 -4.42989952E-04