Title Card Required                                                     
SP        RHF                                                         def2TZVP            
Number of atoms                            I               15
Info1-9                                    I   N=           9
          24          24           0           0           0         110
           1           1           2
Full Title                                 C   N=           2
Title Card Required     
Route                                      C   N=           6
#p RHF/def2TZVP 5D 7F nosymm int(acc2e=10,nobasistransform) 
pop=full    
Charge                                     I                0
Multiplicity                               I                1
Number of electrons                        I               64
Number of alpha electrons                  I               32
Number of beta electrons                   I               32
Number of basis functions                  I              315
Number of independent functions            I              315
Number of point charges in /Mol/           I                0
Number of translation vectors              I                0
Atomic numbers                             I   N=          15
           6           6           6           6           6           6
           1           1           1           1           1           6
           8           1           8
Nuclear charges                            R   N=          15
  6.00000000E+00  6.00000000E+00  6.00000000E+00  6.00000000E+00  6.00000000E+00
  6.00000000E+00  1.00000000E+00  1.00000000E+00  1.00000000E+00  1.00000000E+00
  1.00000000E+00  6.00000000E+00  8.00000000E+00  1.00000000E+00  8.00000000E+00
Current cartesian coordinates              R   N=          45
  6.70905498E+00  4.28954602E-01  2.75900014E-04  9.33802117E+00  4.27469277E-01
  8.35258947E-04  1.06568440E+01  2.71431757E+00 -2.87238371E-04  9.34387932E+00
  5.00295354E+00 -1.96153572E-03  6.71179886E+00  5.01439394E+00 -2.52278438E-03
  5.38810240E+00  2.72220717E+00 -1.40406651E-03  5.63727791E+00 -1.31715423E+00
  1.12249732E-03  1.03612077E+01 -1.35013184E+00  2.14294943E-03  1.27087370E+01
  2.71252800E+00  1.41729459E-04  1.03722985E+01  6.77761235E+00 -2.84025837E-03
  5.67478330E+00  6.77970617E+00 -3.82291595E-03  2.58478629E+00  2.61875223E+00
 -1.93507955E-03  1.49241310E+00  4.93996519E+00 -3.56024402E-03 -3.17052580E-01
  4.63330232E+00 -3.75677554E-03  1.33949646E+00  6.89538386E-01 -1.03934937E-03
Number of symbols in /Mol/                 I                0
Force Field                                I                0
Atom Types                                 C   N=          15
                                                            
                                                            
                                                            
Int Atom Types                             I   N=          15
           0           0           0           0           0           0
           0           0           0           0           0           0
           0           0           0
MM charges                                 R   N=          15
  0.00000000E+00  0.00000000E+00  0.00000000E+00  0.00000000E+00  0.00000000E+00
  0.00000000E+00  0.00000000E+00  0.00000000E+00  0.00000000E+00  0.00000000E+00
  0.00000000E+00  0.00000000E+00  0.00000000E+00  0.00000000E+00  0.00000000E+00
Integer atomic weights                     I   N=          15
          12          12          12          12          12          12
           1           1           1           1           1          12
          16           1          16
Real atomic weights                        R   N=          15
  1.20000000E+01  1.20000000E+01  1.20000000E+01  1.20000000E+01  1.20000000E+01
  1.20000000E+01  1.00782504E+00  1.00782504E+00  1.00782504E+00  1.00782504E+00
  1.00782504E+00  1.20000000E+01  1.59949146E+01  1.00782504E+00  1.59949146E+01
Atom fragment info                         I   N=          15
           0           0           0           0           0           0
           0           0           0           0           0           0
           0           0           0
Atom residue num                           I   N=          15
           0           0           0           0           0           0
           0           0           0           0           0           0
           0           0           0
Nuclear spins                              I   N=          15
           0           0           0           0           0           0
           1           1           1           1           1           0
           0           1           0
Nuclear ZEff                               R   N=          15
 -3.60000000E+00 -3.60000000E+00 -3.60000000E+00 -3.60000000E+00 -3.60000000E+00
 -3.60000000E+00 -1.00000000E+00 -1.00000000E+00 -1.00000000E+00 -1.00000000E+00
 -1.00000000E+00 -3.60000000E+00 -5.60000000E+00 -1.00000000E+00 -5.60000000E+00
Nuclear ZNuc                               R   N=          15
  6.00000000E+00  6.00000000E+00  6.00000000E+00  6.00000000E+00  6.00000000E+00
  6.00000000E+00  1.00000000E+00  1.00000000E+00  1.00000000E+00  1.00000000E+00
  1.00000000E+00  6.00000000E+00  8.00000000E+00  1.00000000E+00  8.00000000E+00
Nuclear QMom                               R   N=          15
  0.00000000E+00  0.00000000E+00  0.00000000E+00  0.00000000E+00  0.00000000E+00
  0.00000000E+00  0.00000000E+00  0.00000000E+00  0.00000000E+00  0.00000000E+00
  0.00000000E+00  0.00000000E+00  0.00000000E+00  0.00000000E+00  0.00000000E+00
Nuclear GFac                               R   N=          15
  0.00000000E+00  0.00000000E+00  0.00000000E+00  0.00000000E+00  0.00000000E+00
  0.00000000E+00  2.79284600E+00  2.79284600E+00  2.79284600E+00  2.79284600E+00
  2.79284600E+00  0.00000000E+00  0.00000000E+00  2.79284600E+00  0.00000000E+00
MicOpt                                     I   N=          15
          -1          -1          -1          -1          -1          -1
          -1          -1          -1          -1          -1          -1
          -1          -1          -1
Number of residues                         I                0
Number of secondary structures             I                0
Number of contracted shells                I              123
Number of primitive shells                 I              216
Pure/Cartesian d shells                    I                0
Pure/Cartesian f shells                    I                0
Highest angular momentum                   I                3
Largest degree of contraction              I                6
Shell types                                I   N=         123
           0           0           0           0           0           1
           1           1          -2          -2          -3           0
           0           0           0           0           1           1
           1          -2          -2          -3           0           0
           0           0           0           1           1           1
          -2          -2          -3           0           0           0
           0           0           1           1           1          -2
          -2          -3           0           0           0           0
           0           1           1           1          -2          -2
          -3           0           0           0           0           0
           1           1           1          -2          -2          -3
           0           0           0           1           0           0
           0           1           0           0           0           1
           0           0           0           1           0           0
           0           1           0           0           0           0
           0           1           1           1          -2          -2
          -3           0           0           0           0           0
           1           1           1          -2          -2          -3
           0           0           0           1           0           0
           0           0           0           1           1           1
          -2          -2          -3
Number of primitives per shell             I   N=         123
           6           2           1           1           1           4
           1           1           1           1           1           6
           2           1           1           1           4           1
           1           1           1           1           6           2
           1           1           1           4           1           1
           1           1           1           6           2           1
           1           1           4           1           1           1
           1           1           6           2           1           1
           1           4           1           1           1           1
           1           6           2           1           1           1
           4           1           1           1           1           1
           3           1           1           1           3           1
           1           1           3           1           1           1
           3           1           1           1           3           1
           1           1           6           2           1           1
           1           4           1           1           1           1
           1           6           2           1           1           1
           4           1           1           1           1           1
           3           1           1           1           6           2
           1           1           1           4           1           1
           1           1           1
Shell to atom map                          I   N=         123
           1           1           1           1           1           1
           1           1           1           1           1           2
           2           2           2           2           2           2
           2           2           2           2           3           3
           3           3           3           3           3           3
           3           3           3           4           4           4
           4           4           4           4           4           4
           4           4           5           5           5           5
           5           5           5           5           5           5
           5           6           6           6           6           6
           6           6           6           6           6           6
           7           7           7           7           8           8
           8           8           9           9           9           9
          10          10          10          10          11          11
          11          11          12          12          12          12
          12          12          12          12          12          12
          12          13          13          13          13          13
          13          13          13          13          13          13
          14          14          14          14          15          15
          15          15          15          15          15          15
          15          15          15
Primitive exponents                        R   N=         216
  1.35753497E+04  2.03523337E+03  4.63225624E+02  1.31200196E+02  4.28530159E+01
  1.55841858E+01  6.20671385E+00  2.57648965E+00  5.76963394E-01  2.29728314E-01
  9.51644400E-02  3.46972322E+01  7.95826228E+00  2.37808269E+00  8.14332082E-01
  2.88875473E-01  1.00568237E-01  1.09700000E+00  3.18000000E-01  7.61000000E-01
  1.35753497E+04  2.03523337E+03  4.63225624E+02  1.31200196E+02  4.28530159E+01
  1.55841858E+01  6.20671385E+00  2.57648965E+00  5.76963394E-01  2.29728314E-01
  9.51644400E-02  3.46972322E+01  7.95826228E+00  2.37808269E+00  8.14332082E-01
  2.88875473E-01  1.00568237E-01  1.09700000E+00  3.18000000E-01  7.61000000E-01
  1.35753497E+04  2.03523337E+03  4.63225624E+02  1.31200196E+02  4.28530159E+01
  1.55841858E+01  6.20671385E+00  2.57648965E+00  5.76963394E-01  2.29728314E-01
  9.51644400E-02  3.46972322E+01  7.95826228E+00  2.37808269E+00  8.14332082E-01
  2.88875473E-01  1.00568237E-01  1.09700000E+00  3.18000000E-01  7.61000000E-01
  1.35753497E+04  2.03523337E+03  4.63225624E+02  1.31200196E+02  4.28530159E+01
  1.55841858E+01  6.20671385E+00  2.57648965E+00  5.76963394E-01  2.29728314E-01
  9.51644400E-02  3.46972322E+01  7.95826228E+00  2.37808269E+00  8.14332082E-01
  2.88875473E-01  1.00568237E-01  1.09700000E+00  3.18000000E-01  7.61000000E-01
  1.35753497E+04  2.03523337E+03  4.63225624E+02  1.31200196E+02  4.28530159E+01
  1.55841858E+01  6.20671385E+00  2.57648965E+00  5.76963394E-01  2.29728314E-01
  9.51644400E-02  3.46972322E+01  7.95826228E+00  2.37808269E+00  8.14332082E-01
  2.88875473E-01  1.00568237E-01  1.09700000E+00  3.18000000E-01  7.61000000E-01
  1.35753497E+04  2.03523337E+03  4.63225624E+02  1.31200196E+02  4.28530159E+01
  1.55841858E+01  6.20671385E+00  2.57648965E+00  5.76963394E-01  2.29728314E-01
  9.51644400E-02  3.46972322E+01  7.95826228E+00  2.37808269E+00  8.14332082E-01
  2.88875473E-01  1.00568237E-01  1.09700000E+00  3.18000000E-01  7.61000000E-01
  3.40613410E+01  5.12357460E+00  1.16466260E+00  3.27230410E-01  1.03072410E-01
  8.00000000E-01  3.40613410E+01  5.12357460E+00  1.16466260E+00  3.27230410E-01
  1.03072410E-01  8.00000000E-01  3.40613410E+01  5.12357460E+00  1.16466260E+00
  3.27230410E-01  1.03072410E-01  8.00000000E-01  3.40613410E+01  5.12357460E+00
  1.16466260E+00  3.27230410E-01  1.03072410E-01  8.00000000E-01  3.40613410E+01
  5.12357460E+00  1.16466260E+00  3.27230410E-01  1.03072410E-01  8.00000000E-01
  1.35753497E+04  2.03523337E+03  4.63225624E+02  1.31200196E+02  4.28530159E+01
  1.55841858E+01  6.20671385E+00  2.57648965E+00  5.76963394E-01  2.29728314E-01
  9.51644400E-02  3.46972322E+01  7.95826228E+00  2.37808269E+00  8.14332082E-01
  2.88875473E-01  1.00568237E-01  1.09700000E+00  3.18000000E-01  7.61000000E-01
  2.70323826E+04  4.05238714E+03  9.22327227E+02  2.61240710E+02  8.53546414E+01
  3.10350352E+01  1.22608607E+01  4.99870760E+00  1.17031082E+00  4.64747410E-01
  1.85045364E-01  6.32749548E+01  1.46270494E+01  4.45012235E+00  1.52757996E+00
  5.29351179E-01  1.74784213E-01  2.31400000E+00  6.45000000E-01  1.42800000E+00
  3.40613410E+01  5.12357460E+00  1.16466260E+00  3.27230410E-01  1.03072410E-01
  8.00000000E-01  2.70323826E+04  4.05238714E+03  9.22327227E+02  2.61240710E+02
  8.53546414E+01  3.10350352E+01  1.22608607E+01  4.99870760E+00  1.17031082E+00
  4.64747410E-01  1.85045364E-01  6.32749548E+01  1.46270494E+01  4.45012235E+00
  1.52757996E+00  5.29351179E-01  1.74784213E-01  2.31400000E+00  6.45000000E-01
  1.42800000E+00
Contraction coefficients                   R   N=         216
  6.06455036E-04  4.69790889E-03  2.43324776E-02  9.73999683E-02  3.01955843E-01
  6.62336091E-01  6.55953085E-01  3.75856333E-01  1.00000000E+00  1.00000000E+00
  1.00000000E+00  1.13272200E-02  7.61696592E-02  3.01922522E-01  7.27850273E-01
  1.00000000E+00  1.00000000E+00  1.00000000E+00  1.00000000E+00  1.00000000E+00
  6.06455036E-04  4.69790889E-03  2.43324776E-02  9.73999683E-02  3.01955843E-01
  6.62336091E-01  6.55953085E-01  3.75856333E-01  1.00000000E+00  1.00000000E+00
  1.00000000E+00  1.13272200E-02  7.61696592E-02  3.01922522E-01  7.27850273E-01
  1.00000000E+00  1.00000000E+00  1.00000000E+00  1.00000000E+00  1.00000000E+00
  6.06455036E-04  4.69790889E-03  2.43324776E-02  9.73999683E-02  3.01955843E-01
  6.62336091E-01  6.55953085E-01  3.75856333E-01  1.00000000E+00  1.00000000E+00
  1.00000000E+00  1.13272200E-02  7.61696592E-02  3.01922522E-01  7.27850273E-01
  1.00000000E+00  1.00000000E+00  1.00000000E+00  1.00000000E+00  1.00000000E+00
  6.06455036E-04  4.69790889E-03  2.43324776E-02  9.73999683E-02  3.01955843E-01
  6.62336091E-01  6.55953085E-01  3.75856333E-01  1.00000000E+00  1.00000000E+00
  1.00000000E+00  1.13272200E-02  7.61696592E-02  3.01922522E-01  7.27850273E-01
  1.00000000E+00  1.00000000E+00  1.00000000E+00  1.00000000E+00  1.00000000E+00
  6.06455036E-04  4.69790889E-03  2.43324776E-02  9.73999683E-02  3.01955843E-01
  6.62336091E-01  6.55953085E-01  3.75856333E-01  1.00000000E+00  1.00000000E+00
  1.00000000E+00  1.13272200E-02  7.61696592E-02  3.01922522E-01  7.27850273E-01
  1.00000000E+00  1.00000000E+00  1.00000000E+00  1.00000000E+00  1.00000000E+00
  6.06455036E-04  4.69790889E-03  2.43324776E-02  9.73999683E-02  3.01955843E-01
  6.62336091E-01  6.55953085E-01  3.75856333E-01  1.00000000E+00  1.00000000E+00
  1.00000000E+00  1.13272200E-02  7.61696592E-02  3.01922522E-01  7.27850273E-01
  1.00000000E+00  1.00000000E+00  1.00000000E+00  1.00000000E+00  1.00000000E+00
  2.54393072E-02  1.90085949E-01  8.52441130E-01  1.00000000E+00  1.00000000E+00
  1.00000000E+00  2.54393072E-02  1.90085949E-01  8.52441130E-01  1.00000000E+00
  1.00000000E+00  1.00000000E+00  2.54393072E-02  1.90085949E-01  8.52441130E-01
  1.00000000E+00  1.00000000E+00  1.00000000E+00  2.54393072E-02  1.90085949E-01
  8.52441130E-01  1.00000000E+00  1.00000000E+00  1.00000000E+00  2.54393072E-02
  1.90085949E-01  8.52441130E-01  1.00000000E+00  1.00000000E+00  1.00000000E+00
  6.06455036E-04  4.69790889E-03  2.43324776E-02  9.73999683E-02  3.01955843E-01
  6.62336091E-01  6.55953085E-01  3.75856333E-01  1.00000000E+00  1.00000000E+00
  1.00000000E+00  1.13272200E-02  7.61696592E-02  3.01922522E-01  7.27850273E-01
  1.00000000E+00  1.00000000E+00  1.00000000E+00  1.00000000E+00  1.00000000E+00
  5.72273352E-04  4.43532335E-03  2.30201077E-02  9.28224907E-02  2.93785000E-01
  6.74016045E-01  6.38399370E-01  3.95345871E-01  1.00000000E+00  1.00000000E+00
  1.00000000E+00  1.20183322E-02  8.30054218E-02  3.19917439E-01  7.07155429E-01
  1.00000000E+00  1.00000000E+00  1.00000000E+00  1.00000000E+00  1.00000000E+00
  2.54393072E-02  1.90085949E-01  8.52441130E-01  1.00000000E+00  1.00000000E+00
  1.00000000E+00  5.72273352E-04  4.43532335E-03  2.30201077E-02  9.28224907E-02
  2.93785000E-01  6.74016045E-01  6.38399370E-01  3.95345871E-01  1.00000000E+00
  1.00000000E+00  1.00000000E+00  1.20183322E-02  8.30054218E-02  3.19917439E-01
  7.07155429E-01  1.00000000E+00  1.00000000E+00  1.00000000E+00  1.00000000E+00
  1.00000000E+00
Coordinates of each shell                  R   N=         369
  6.70905498E+00  4.28954602E-01  2.75900014E-04  6.70905498E+00  4.28954602E-01
  2.75900014E-04  6.70905498E+00  4.28954602E-01  2.75900014E-04  6.70905498E+00
  4.28954602E-01  2.75900014E-04  6.70905498E+00  4.28954602E-01  2.75900014E-04
  6.70905498E+00  4.28954602E-01  2.75900014E-04  6.70905498E+00  4.28954602E-01
  2.75900014E-04  6.70905498E+00  4.28954602E-01  2.75900014E-04  6.70905498E+00
  4.28954602E-01  2.75900014E-04  6.70905498E+00  4.28954602E-01  2.75900014E-04
  6.70905498E+00  4.28954602E-01  2.75900014E-04  9.33802117E+00  4.27469277E-01
  8.35258947E-04  9.33802117E+00  4.27469277E-01  8.35258947E-04  9.33802117E+00
  4.27469277E-01  8.35258947E-04  9.33802117E+00  4.27469277E-01  8.35258947E-04
  9.33802117E+00  4.27469277E-01  8.35258947E-04  9.33802117E+00  4.27469277E-01
  8.35258947E-04  9.33802117E+00  4.27469277E-01  8.35258947E-04  9.33802117E+00
  4.27469277E-01  8.35258947E-04  9.33802117E+00  4.27469277E-01  8.35258947E-04
  9.33802117E+00  4.27469277E-01  8.35258947E-04  9.33802117E+00  4.27469277E-01
  8.35258947E-04  1.06568440E+01  2.71431757E+00 -2.87238371E-04  1.06568440E+01
  2.71431757E+00 -2.87238371E-04  1.06568440E+01  2.71431757E+00 -2.87238371E-04
  1.06568440E+01  2.71431757E+00 -2.87238371E-04  1.06568440E+01  2.71431757E+00
 -2.87238371E-04  1.06568440E+01  2.71431757E+00 -2.87238371E-04  1.06568440E+01
  2.71431757E+00 -2.87238371E-04  1.06568440E+01  2.71431757E+00 -2.87238371E-04
  1.06568440E+01  2.71431757E+00 -2.87238371E-04  1.06568440E+01  2.71431757E+00
 -2.87238371E-04  1.06568440E+01  2.71431757E+00 -2.87238371E-04  9.34387932E+00
  5.00295354E+00 -1.96153572E-03  9.34387932E+00  5.00295354E+00 -1.96153572E-03
  9.34387932E+00  5.00295354E+00 -1.96153572E-03  9.34387932E+00  5.00295354E+00
 -1.96153572E-03  9.34387932E+00  5.00295354E+00 -1.96153572E-03  9.34387932E+00
  5.00295354E+00 -1.96153572E-03  9.34387932E+00  5.00295354E+00 -1.96153572E-03
  9.34387932E+00  5.00295354E+00 -1.96153572E-03  9.34387932E+00  5.00295354E+00
 -1.96153572E-03  9.34387932E+00  5.00295354E+00 -1.96153572E-03  9.34387932E+00
  5.00295354E+00 -1.96153572E-03  6.71179886E+00  5.01439394E+00 -2.52278438E-03
  6.71179886E+00  5.01439394E+00 -2.52278438E-03  6.71179886E+00  5.01439394E+00
 -2.52278438E-03  6.71179886E+00  5.01439394E+00 -2.52278438E-03  6.71179886E+00
  5.01439394E+00 -2.52278438E-03  6.71179886E+00  5.01439394E+00 -2.52278438E-03
  6.71179886E+00  5.01439394E+00 -2.52278438E-03  6.71179886E+00  5.01439394E+00
 -2.52278438E-03  6.71179886E+00  5.01439394E+00 -2.52278438E-03  6.71179886E+00
  5.01439394E+00 -2.52278438E-03  6.71179886E+00  5.01439394E+00 -2.52278438E-03
  5.38810240E+00  2.72220717E+00 -1.40406651E-03  5.38810240E+00  2.72220717E+00
 -1.40406651E-03  5.38810240E+00  2.72220717E+00 -1.40406651E-03  5.38810240E+00
  2.72220717E+00 -1.40406651E-03  5.38810240E+00  2.72220717E+00 -1.40406651E-03
  5.38810240E+00  2.72220717E+00 -1.40406651E-03  5.38810240E+00  2.72220717E+00
 -1.40406651E-03  5.38810240E+00  2.72220717E+00 -1.40406651E-03  5.38810240E+00
  2.72220717E+00 -1.40406651E-03  5.38810240E+00  2.72220717E+00 -1.40406651E-03
  5.38810240E+00  2.72220717E+00 -1.40406651E-03  5.63727791E+00 -1.31715423E+00
  1.12249732E-03  5.63727791E+00 -1.31715423E+00  1.12249732E-03  5.63727791E+00
 -1.31715423E+00  1.12249732E-03  5.63727791E+00 -1.31715423E+00  1.12249732E-03
  1.03612077E+01 -1.35013184E+00  2.14294943E-03  1.03612077E+01 -1.35013184E+00
  2.14294943E-03  1.03612077E+01 -1.35013184E+00  2.14294943E-03  1.03612077E+01
 -1.35013184E+00  2.14294943E-03  1.27087370E+01  2.71252800E+00  1.41729459E-04
  1.27087370E+01  2.71252800E+00  1.41729459E-04  1.27087370E+01  2.71252800E+00
  1.41729459E-04  1.27087370E+01  2.71252800E+00  1.41729459E-04  1.03722985E+01
  6.77761235E+00 -2.84025837E-03  1.03722985E+01  6.77761235E+00 -2.84025837E-03
  1.03722985E+01  6.77761235E+00 -2.84025837E-03  1.03722985E+01  6.77761235E+00
 -2.84025837E-03  5.67478330E+00  6.77970617E+00 -3.82291595E-03  5.67478330E+00
  6.77970617E+00 -3.82291595E-03  5.67478330E+00  6.77970617E+00 -3.82291595E-03
  5.67478330E+00  6.77970617E+00 -3.82291595E-03  2.58478629E+00  2.61875223E+00
 -1.93507955E-03  2.58478629E+00  2.61875223E+00 -1.93507955E-03  2.58478629E+00
  2.61875223E+00 -1.93507955E-03  2.58478629E+00  2.61875223E+00 -1.93507955E-03
  2.58478629E+00  2.61875223E+00 -1.93507955E-03  2.58478629E+00  2.61875223E+00
 -1.93507955E-03  2.58478629E+00  2.61875223E+00 -1.93507955E-03  2.58478629E+00
  2.61875223E+00 -1.93507955E-03  2.58478629E+00  2.61875223E+00 -1.93507955E-03
  2.58478629E+00  2.61875223E+00 -1.93507955E-03  2.58478629E+00  2.61875223E+00
 -1.93507955E-03  1.49241310E+00  4.93996519E+00 -3.56024402E-03  1.49241310E+00
  4.93996519E+00 -3.56024402E-03  1.49241310E+00  4.93996519E+00 -3.56024402E-03
  1.49241310E+00  4.93996519E+00 -3.56024402E-03  1.49241310E+00  4.93996519E+00
 -3.56024402E-03  1.49241310E+00  4.93996519E+00 -3.56024402E-03  1.49241310E+00
  4.93996519E+00 -3.56024402E-03  1.49241310E+00  4.93996519E+00 -3.56024402E-03
  1.49241310E+00  4.93996519E+00 -3.56024402E-03  1.49241310E+00  4.93996519E+00
 -3.56024402E-03  1.49241310E+00  4.93996519E+00 -3.56024402E-03 -3.17052580E-01
  4.63330232E+00 -3.75677554E-03 -3.17052580E-01  4.63330232E+00 -3.75677554E-03
 -3.17052580E-01  4.63330232E+00 -3.75677554E-03 -3.17052580E-01  4.63330232E+00
 -3.75677554E-03  1.33949646E+00  6.89538386E-01 -1.03934937E-03  1.33949646E+00
  6.89538386E-01 -1.03934937E-03  1.33949646E+00  6.89538386E-01 -1.03934937E-03
  1.33949646E+00  6.89538386E-01 -1.03934937E-03  1.33949646E+00  6.89538386E-01
 -1.03934937E-03  1.33949646E+00  6.89538386E-01 -1.03934937E-03  1.33949646E+00
  6.89538386E-01 -1.03934937E-03  1.33949646E+00  6.89538386E-01 -1.03934937E-03
  1.33949646E+00  6.89538386E-01 -1.03934937E-03  1.33949646E+00  6.89538386E-01
 -1.03934937E-03  1.33949646E+00  6.89538386E-01 -1.03934937E-03
Num ILSW                                   I              100
ILSW                                       I   N=         100
           0           0           0           0           2           0
           0           0           0           0           0          -1
           5           0           0           0           0           0
           0           0           0           0           0           0
           1           1           0           0           0           0
           0           0      100000           0          -1           0
           0           0           0           0           0           0
           0           0           0           1           0           0
           0 -2000000000           1           0           0           0
           0           0           4          52           0           0
           0           0           0           0           0           0
           0           0           0          15           0           1
           0           0           0           0           0           0
           0           0           0           0           0           0
           0           0           0           0           0           0
           0           0           0           0           0           0
           0           0           0           0
Num RLSW                                   I               52
RLSW                                       R   N=          52
  1.00000000E+00  1.00000000E+00  1.00000000E+00  1.00000000E+00  1.00000000E+00
  0.00000000E+00  0.00000000E+00  1.00000000E+00  0.00000000E+00  0.00000000E+00
  0.00000000E+00  0.00000000E+00  1.00000000E+00  0.00000000E+00  0.00000000E+00
  0.00000000E+00  0.00000000E+00  1.00000000E+00  0.00000000E+00  0.00000000E+00
  0.00000000E+00  0.00000000E+00  1.00000000E+00  0.00000000E+00  0.00000000E+00
  0.00000000E+00  0.00000000E+00  1.00000000E+00  0.00000000E+00  0.00000000E+00
  0.00000000E+00  0.00000000E+00  1.00000000E+00  0.00000000E+00  0.00000000E+00
  0.00000000E+00  0.00000000E+00  0.00000000E+00  1.00000000E+00  1.00000000E+00
  0.00000000E+00  1.00000000E+00  0.00000000E+00  0.00000000E+00  0.00000000E+00
  0.00000000E+00  0.00000000E+00  0.00000000E+00  0.00000000E+00  0.00000000E+00
  0.00000000E+00  0.00000000E+00
ECP-MxAtEC                                 I           250000
ECP-MaxLECP                                I               10
ECP-MaxAtL                                 I          2250000
ECP-MxTECP                                 I         11250000
ECP-LenNCZ                                 I                0
ECP-KFirst                                 I   N=         150
           0           0           0           0           0           0
           0           0           0           0           0           0
           0           0           0           0           0           0
           0           0           0           0           0           0
           0           0           0           0           0           0
           0           0           0           0           0           0
           0           0           0           0           0           0
           0           0           0           0           0           0
           0           0           0           0           0           0
           0           0           0           0           0           0
           0           0           0           0           0           0
           0           0           0           0           0           0
           0           0           0           0           0           0
           0           0           0           0           0           0
           0           0           0           0           0           0
           0           0           0           0           0           0
           0           0           0           0           0           0
           0           0           0           0           0           0
           0           0           0           0           0           0
           0           0           0           0           0           0
           0           0           0           0           0           0
           0           0           0           0           0           0
           0           0           0           0           0           0
           0           0           0           0           0           0
           0           0           0           0           0           0
ECP-KLast                                  I   N=         150
           0           0           0           0           0           0
           0           0           0           0           0           0
           0           0           0           0           0           0
           0           0           0           0           0           0
           0           0           0           0           0           0
           0           0           0           0           0           0
           0           0           0           0           0           0
           0           0           0           0           0           0
           0           0           0           0           0           0
           0           0           0           0           0           0
           0           0           0           0           0           0
           0           0           0           0           0           0