title                                                                   
SP        GHF                                                         GenECP              
Number of atoms                            I                1
Info1-9                                    I   N=           9
          91          90           0           0           0         110
           1           1           2
Full Title                                 C   N=           1
title       
Route                                      C   N=           5
#p ghf nosymm int=nobasistransform genecp pop=full          
Charge                                     I                0
Multiplicity                               I                5
Number of electrons                        I               28
Number of alpha electrons                  I               16
Number of beta electrons                   I               12
Number of basis functions                  I               71
Number of independent functions            I               71
Number of point charges in /Mol/           I                0
Number of translation vectors              I                0
Atomic numbers                             I   N=           1
         106
Nuclear charges                            R   N=           1
  2.80000000E+01
Current cartesian coordinates              R   N=           3
  0.00000000E+00  0.00000000E+00  0.00000000E+00
Number of symbols in /Mol/                 I                0
Force Field                                I                0
Atom Types                                 C   N=           1
            
Int Atom Types                             I   N=           1
           0
MM charges                                 R   N=           1
  0.00000000E+00
Integer atomic weights                     I   N=           1
         266
Real atomic weights                        R   N=           1
  2.66121900E+02
Atom fragment info                         I   N=           1
           0
Atom residue num                           I   N=           1
           0
Nuclear spins                              I   N=           1
           0
Nuclear ZEff                               R   N=           1
 -0.00000000E+00
Nuclear ZNuc                               R   N=           1
  1.06000000E+02
Nuclear QMom                               R   N=           1
  0.00000000E+00
Nuclear GFac                               R   N=           1
  0.00000000E+00
MicOpt                                     I   N=           1
          -1
Number of residues                         I                0
Number of secondary structures             I                0
Number of contracted shells                I               13
Number of primitive shells                 I               13
Pure/Cartesian d shells                    I                0
Pure/Cartesian f shells                    I                0
Highest angular momentum                   I                3
Largest degree of contraction              I                1
Shell types                                I   N=          13
           1           1          -2          -2          -2          -2
          -2          -2          -3          -3          -3          -3
          -3
Number of primitives per shell             I   N=          13
           1           1           1           1           1           1
           1           1           1           1           1           1
           1
Shell to atom map                          I   N=          13
           1           1           1           1           1           1
           1           1           1           1           1           1
           1
Primitive exponents                        R   N=          13
  6.70770000E-02  1.75343000E-02  2.54217990E+01  2.59876260E+00  2.05607850E+00
  7.77535300E-01  2.90524700E-01  9.75429000E-02  8.18033850E+00  3.70892090E+00
  1.66504880E+00  7.70885700E-01  3.35943800E-01
Contraction coefficients                   R   N=          13
  1.00000000E+00  1.00000000E+00  1.00000000E+00  1.00000000E+00  1.00000000E+00
  1.00000000E+00  1.00000000E+00  1.00000000E+00  1.00000000E+00  1.00000000E+00
  1.00000000E+00  1.00000000E+00  1.00000000E+00
Coordinates of each shell                  R   N=          39
  0.00000000E+00  0.00000000E+00  0.00000000E+00  0.00000000E+00  0.00000000E+00
  0.00000000E+00  0.00000000E+00  0.00000000E+00  0.00000000E+00  0.00000000E+00
  0.00000000E+00  0.00000000E+00  0.00000000E+00  0.00000000E+00  0.00000000E+00
  0.00000000E+00  0.00000000E+00  0.00000000E+00  0.00000000E+00  0.00000000E+00
  0.00000000E+00  0.00000000E+00  0.00000000E+00  0.00000000E+00  0.00000000E+00
  0.00000000E+00  0.00000000E+00  0.00000000E+00  0.00000000E+00  0.00000000E+00
  0.00000000E+00  0.00000000E+00  0.00000000E+00  0.00000000E+00  0.00000000E+00
  0.00000000E+00  0.00000000E+00  0.00000000E+00  0.00000000E+00
Num ILSW                                   I              100
ILSW                                       I   N=         100
           6           0           0           0           2           0
           0           0           0           0           0          -1
           5           0           0           0           0           0
           0           0           0           0           0           0
           1           1           0           0           0           0
           0           0      100000           0          -1           0
           0           0           0           0           0           0
           0           0           0           1           0           0
           0 -2000000000           1           0           0           0
           0           0           4          52           0           0
           0           0           0           0           0           0
           0           0           0           1           0           1
           0           0           0           0           0           0
           0           0           0           0           0           0
           0           0           0           0           0           0
           0           0           0           0           0           0
           0           0           0           0
Num RLSW                                   I               52
RLSW                                       R   N=          52
  1.00000000E+00  1.00000000E+00  1.00000000E+00  1.00000000E+00  1.00000000E+00
  0.00000000E+00  0.00000000E+00  1.00000000E+00  0.00000000E+00  0.00000000E+00
  0.00000000E+00  0.00000000E+00  1.00000000E+00  0.00000000E+00  0.00000000E+00
  0.00000000E+00  0.00000000E+00  1.00000000E+00  0.00000000E+00  0.00000000E+00
  0.00000000E+00  0.00000000E+00  1.00000000E+00  0.00000000E+00  0.00000000E+00
  0.00000000E+00  0.00000000E+00  1.00000000E+00  0.00000000E+00  0.00000000E+00
  0.00000000E+00  0.00000000E+00  1.00000000E+00  0.00000000E+00  0.00000000E+00
  0.00000000E+00  0.00000000E+00  0.00000000E+00  1.00000000E+00  1.00000000E+00
  0.00000000E+00  1.00000000E+00  0.00000000E+00  0.00000000E+00  0.00000000E+00
  0.00000000E+00  0.00000000E+00  0.00000000E+00  0.00000000E+00  0.00000000E+00
  0.00000000E+00  0.00000000E+00
ECP-MxAtEC                                 I           250000
ECP-MaxLECP                                I               10
ECP-MaxAtL                                 I          2250000
ECP-MxTECP                                 I         11250000
ECP-LenNCZ                                 I               38
ECP-KFirst                                 I   N=          10
           1           7          15          23          31           0
           0           0           0           0
ECP-KLast                                  I   N=          10
           6          14          22          30          38           0
           0           0           0           0
ECP-LMax                                   I   N=           1
           4
ECP-LPSkip                                 I   N=           1
           0
ECP-RNFroz                                 R   N=           1
  7.80000000E+01
ECP-NLP                                    I   N=          38
           2           2           2           2           2           1
           2           2           2           2           2           2
           1           0           2           2           2           2
           2           2           1           0           2           2
           2           2           2           2           1           0
           2           2           2           2           2           2
           1           0
ECP-CLP1                                   R   N=          38
 -2.86417007E+00 -2.48322163E+01 -6.52087936E+01 -2.30830307E+02 -5.81962402E+02
 -7.26012726E+01  1.20596018E+01 -4.03617897E+01  8.37126770E+01 -1.60982040E+02
  3.68868622E+02 -3.78962555E+02  1.54195374E+02  1.31549702E+01 -2.69109764E+01
  1.04842430E+02 -2.25371658E+02  4.30559570E+02 -4.50615723E+02  4.41563934E+02
  3.67362557E+01  1.51648626E+01  4.63465157E+01 -1.51616333E+02  3.13824310E+02
 -3.57892487E+02  3.68826477E+02 -1.40974762E+02  7.46530151E+01  7.29740906E+00
  7.81000000E-04 -2.40355587E+01  6.78944473E+01 -1.21398827E+02  2.32516205E+02
 -2.53158707E+02  1.10254097E+02  8.23139000E+00
ECP-CLP2                                   R   N=          38
 -4.36715000E-02  1.57314500E-01 -2.08695000E-01  1.44372800E+00  2.30583150E+00
  3.97527850E+00  0.00000000E+00  0.00000000E+00  0.00000000E+00  0.00000000E+00
  0.00000000E+00  0.00000000E+00  0.00000000E+00  0.00000000E+00  4.47906820E+01
 -1.46108512E+02  2.18239240E+02 -1.65130910E+02  3.54875920E+01  4.83004620E+01
 -1.11249820E+01  9.27340000E-01  4.77368800E+00 -1.70418770E+01  4.06165360E+01
 -6.23186650E+01  5.32819980E+01 -2.76744170E+01  9.82915000E-01 -9.82670000E-02
 -9.32667000E-04  1.03193867E+00 -5.50169733E+00  1.41711120E+01 -2.42446193E+01
  2.63350140E+01 -6.29648667E-01  6.08646670E-02
ECP-ZLP                                    R   N=          38
  2.64319992E+00  6.07140017E+00  1.57412005E+01  4.24580002E+01  1.42643097E+02
  4.74112396E+02  8.62999980E-01  1.05420005E+00  1.49409997E+00  2.32960010E+00
  4.06939983E+00  7.56169987E+00  1.24813995E+01  9.25594025E+01  1.40380001E+00
  1.67890000E+00  2.21339989E+00  3.24169993E+00  5.05520010E+00  8.12880039E+00
  2.31009998E+01  2.14099007E+01  1.42400002E+00  1.70340002E+00  2.33990002E+00
  3.50469995E+00  5.58169985E+00  8.84290028E+00  1.43563004E+01  4.62206993E+01
  2.00900000E-01  2.50580001E+00  3.13100004E+00  4.52750015E+00  7.31710005E+00
  1.23481998E+01  1.93710995E+01  1.19084602E+02
MxBond                                     I                1
NBond                                      I   N=           1
           0
IBond                                      I   N=           1
           0
RBond                                      R   N=           1
  0.00000000E+00
Virial Ratio                               R      2.243976291732286E+00
SCF Energy                                 R     -2.846663022989143E+02
Total Energy                               R     -2.846663022989143E+02
S**2                                       R      1.978860674713477E+00
RMS Density                                R      6.475620099776650E-09
Job Status                                 I                1
Nuclear derivative order                   I                0
External E-field                           R   N=          35
  0.00000000E+00  0.00000000E+00  0.00000000E+00  0.00000000E+00  0.00000000E+00
  0.00000000E+00  0.00000000E+00  0.00000000E+00  0.00000000E+00  0.00000000E+00
  0.00000000E+00  0.00000000E+00  0.00000000E+00  0.00000000E+00  0.00000000E+00
  0.00000000E+00  0.00000000E+00  0.00000000E+00  0.00000000E+00  0.00000000E+00
  0.00000000E+00  0.00000000E+00  0.00000000E+00  0.00000000E+00  0.00000000E+00
  0.00000000E+00  0.00000000E+00  0.00000000E+00  0.00000000E+00  0.00000000E+00
  0.00000000E+00  0.00000000E+00  0.00000000E+00  0.00000000E+00  0.00000000E+00
IOpCl                                      I                6
IROHF                                      I                0
Alpha Orbital Energies                     R   N=         142
 -3.07577862E+00 -3.07428779E+00 -3.07254933E+00 -3.07178353E+00 -3.07084236E+00
 -3.07061080E+00 -2.93836843E+00 -2.93596416E+00 -2.93540814E+00 -2.93403772E+00
 -2.93343244E+00 -2.93277114E+00 -2.93238972E+00 -2.93219844E+00 -9.72689199E-01
 -9.60342376E-01 -9.57610127E-01 -9.57276279E-01 -8.67642174E-01 -8.46310282E-01
 -8.43401936E-01 -8.43400265E-01 -8.41424374E-01 -8.36111299E-01 -4.63315207E-01
 -4.58058852E-01 -4.32641215E-01 -4.02497240E-01 -1.97185268E-01 -1.93548945E-01
  3.65711868E-02  3.68987223E-02  3.87713324E-02  3.91244123E-02  4.33594029E-02
  4.40481751E-02  1.71132443E-01  1.83268085E-01  1.92307754E-01  1.95826828E-01
  1.98890724E-01  2.30877307E-01  2.33677411E-01  2.35432585E-01  2.39504928E-01
  2.46848743E-01  5.77224631E-01  5.80158358E-01  5.93512565E-01  5.94438122E-01
  6.03280014E-01  6.03434742E-01  6.06542859E-01  6.15715919E-01  6.18666413E-01
  6.20814948E-01  6.22029354E-01  6.23355237E-01  6.23737339E-01  6.24121854E-01
  1.14861150E+00  1.16049729E+00  1.16528153E+00  1.16781746E+00  1.22331648E+00
  1.24050442E+00  1.24101617E+00  1.24464429E+00  1.24743161E+00  1.24763148E+00
  2.16406134E+00  2.17189593E+00  2.17592748E+00  2.17913269E+00  2.18205832E+00
  2.18283886E+00  2.20625763E+00  2.21649398E+00  2.21770319E+00  2.22190995E+00
  2.22456426E+00  2.22560279E+00  2.22758210E+00  2.22764201E+00  5.12177326E+00
  5.12285853E+00  5.13009070E+00  5.13024661E+00  5.26949523E+00  5.27093006E+00
  5.27660007E+00  5.27672925E+00  5.27969823E+00  5.27991950E+00  6.75232531E+00
  6.75372956E+00  6.75920502E+00  6.75966713E+00  6.76262700E+00  6.76271430E+00
  6.85244718E+00  6.85447642E+00  6.85856157E+00  6.85913078E+00  6.86237546E+00
  6.86241503E+00  6.86411694E+00  6.86419689E+00  1.69031637E+01  1.69034378E+01
  1.69066384E+01  1.69067169E+01  1.69083447E+01  1.69084054E+01  1.79914659E+01
  1.79916174E+01  1.79953513E+01  1.79953623E+01  2.01121557E+01  2.01123116E+01
  2.01153540E+01  2.01153766E+01  2.01169327E+01  2.01169369E+01  2.10737974E+01
  2.10740308E+01  2.10764395E+01  2.10764409E+01  2.10780935E+01  2.10781577E+01
  2.10789525E+01  2.10789847E+01  1.69636050E+02  1.69636080E+02  1.69636552E+02
  1.69636560E+02  1.69636801E+02  1.69636802E+02  1.76298466E+02  1.76298484E+02
  1.76299040E+02  1.76299044E+02
Alpha MO coefficients                      R   N=       40328
  1.19951228E-10  4.54941609E-10 -4.52063321E-11  2.78305608E-11 -4.54694766E-10
  1.22041919E-10 -2.68571594E-11 -4.97687379E-11 -1.18341016E-12  5.26424263E-12
 -2.61724129E-11  3.46913668E-11 -3.75451478E-11 -1.39522704E-10  7.98406652E-12
 -4.71566345E-12  1.39641676E-10 -3.85413408E-11  4.45418324E-12  9.40027092E-12
 -3.22104291E-12  6.80319905E-13  7.64757658E-12 -1.10288908E-11  1.69955812E-14
 -4.80345809E-14  5.62162601E-15 -1.70261893E-17 -2.33451598E-13 -1.89692048E-13
  2.81483973E-14 -7.71370680E-14  1.89763396E-13 -2.29121644E-13  7.68066176E-14
  2.82708006E-14  8.95155218E-14  9.05914471E-15 -7.57633195E-13 -6.46551764E-13
 -8.95700939E-15  8.94236123E-14  6.46685505E-13 -7.57597103E-13  1.29849629E-12
 -3.60826936E-12  2.78102876E-13 -3.37963362E-15 -1.75331794E-11 -1.45651854E-11
  1.50619785E-12 -4.12010353E-12  1.45683205E-11 -1.72097314E-11  4.11752902E-12
  1.50341511E-12  2.48290696E-12  2.58614846E-13 -4.30430412E-11 -3.66327073E-11
 -2.50082657E-13  2.47685986E-12  3.66303312E-11 -4.30362274E-11 -2.29319550E-12
  6.39870102E-12 -5.63437236E-13  5.09284401E-15  3.10885001E-11  2.56855985E-11
 -2.96209600E-12  8.10422715E-12 -2.56916679E-11  3.05152940E-11 -8.09305008E-12
 -2.96215914E-12 -6.27766034E-12 -6.62344579E-13  8.29601711E-11  7.06625423E-11
  6.46708254E-13 -6.26707668E-12 -7.06602278E-11  8.29490822E-11 -2.34222979E-12
  6.58329792E-12 -6.58879298E-13  4.77979969E-15  3.19800649E-11  2.61949814E-11
 -3.39095685E-12  9.28962066E-12 -2.62051889E-11  3.13864207E-11 -9.26160052E-12
 -3.40238323E-12 -9.59096529E-12 -9.18490254E-13  9.32027989E-11  7.94902140E-11
  8.98709774E-13 -9.58776432E-12 -7.94891546E-11  9.32076457E-11 -5.46921361E-13
  1.53839307E-12 -1.12398402E-13  2.16422788E-15  7.45518372E-12  6.10687583E-12
 -6.14644406E-13  1.67860361E-12 -6.10948175E-12  7.31740988E-12 -1.67819038E-12
 -6.18586993E-13 -2.45796152E-12 -8.57139916E-14  1.77092177E-11  1.51135495E-11
  8.19097167E-14 -2.45702903E-12 -1.51133661E-11  1.77060437E-11 -6.13142003E-14
  1.72704146E-13  1.16247960E-14 -2.36166487E-16  8.35481299E-13  6.82336021E-13
  1.97705072E-14 -5.83468854E-14 -6.83512000E-13  8.19298363E-13  5.72423476E-14
  2.10444780E-14 -4.18712760E-13  5.35842583E-14 -6.58404229E-14 -4.39290356E-14
 -5.47729758E-14 -4.16493927E-13  4.35153521E-14 -6.27021532E-14 -9.31624721E-04
  8.02202520E-04 -5.57102249E-05 -3.07570599E-05  3.63522227E-03  9.70131865E-03
 -7.97647000E-04  6.87957976E-04 -9.65413896E-03  3.54976582E-03 -6.85383562E-04
 -7.97260658E-04  6.71525247E-02 -1.85542676E-06  5.89938298E-03  1.58921370E-02
 -1.85536332E-06  6.71519678E-02 -1.58921459E-02  5.89934034E-03  8.99471832E-05
 -2.42416454E-04  1.69731513E-01  6.05226159E-12  2.42434780E-04  9.00346677E-05
 -1.25023412E-10  1.69731513E-01 -1.78771950E-03  1.53936780E-03 -1.07926773E-04
 -5.95852927E-05  6.97580750E-03  1.86163424E-02 -1.54177386E-03  1.32977000E-03
 -1.85258086E-02  6.81182382E-03 -1.32476101E-03 -1.54102216E-03  1.28866986E-01
 -3.56040802E-06  1.13869919E-02  3.06750082E-02 -3.56025753E-06  1.28865917E-01
 -3.06750257E-02  1.13869079E-02  1.99861035E-04 -5.38612079E-04  3.27305630E-01
  0.00000000E+00  5.38647246E-04  2.00028910E-04 -2.64334948E-10  3.27305630E-01
 -1.23752447E-03  1.06560638E-03 -7.49083684E-05 -4.13561594E-05  4.82892365E-03
  1.28869526E-02 -1.06942456E-03  9.22374530E-04 -1.28242819E-02  4.71540837E-03
 -9.18893833E-04 -1.06890222E-03  8.92076155E-02 -2.46463997E-06  7.89533265E-03
  2.12689525E-02 -2.46453049E-06  8.92068758E-02 -2.12689647E-02  7.89527415E-03
  1.43614740E-04 -3.87026590E-04  2.26882459E-01 -3.07232091E-12  3.87050934E-04
  1.43730948E-04 -1.86862587E-10  2.26882459E-01 -3.07527770E-04  2.64805718E-04
 -1.90451003E-05 -1.05146060E-05  1.20003374E-03  3.20253233E-03 -2.70442656E-04
  2.33261714E-04 -3.18695874E-03  1.17182534E-03 -2.32367790E-04 -2.70308506E-04
  2.21709187E-02 -6.12458368E-07  1.98997857E-03  5.36073068E-03 -6.12423447E-07
  2.21707349E-02 -5.36073391E-03  1.98996315E-03  4.71521573E-05 -1.27058526E-04
  5.70550871E-02 -6.32679940E-12  1.27064576E-04  4.71810346E-05 -5.60225764E-11
  5.70550872E-02 -4.79488979E-05  4.12877929E-05 -2.34005902E-06 -1.29195432E-06
  1.87055216E-04  4.99192664E-04 -3.53076997E-05  3.04449776E-05 -4.96764134E-04
  1.82656434E-04 -3.03479739E-05 -3.52931355E-05  3.45300561E-03 -9.54894805E-08
  2.69350826E-04  7.25595418E-04 -9.55328651E-08  3.45297694E-03 -7.25595651E-04
  2.69349712E-04 -9.41994991E-06  2.53710807E-05  7.90939420E-03  1.31276145E-11
 -2.53701373E-05 -9.41544620E-06 -6.88595219E-13  7.90939420E-03  1.26578839E-10
  8.16935580E-11  1.26349248E-10 -4.83109843E-10  8.09734435E-11 -1.30455110E-10
 -4.81668122E-10 -1.24120595E-10  3.20421492E-11  3.04010896E-11 -4.11258291E-11
 -3.01236291E-11 -4.63947897E-11 -2.99901470E-11 -4.01368616E-11  1.50730582E-10
 -2.98660387E-11  4.75774777E-11  1.49731297E-10  3.92108803E-11 -1.03208075E-11
 -8.98047431E-12  1.70756729E-11  1.19968898E-11  5.59465394E-15  2.42569068E-17
 -1.73375615E-14 -4.89347867E-14  2.81873391E-14  7.72202332E-14  2.37654293E-13
 -1.93168329E-13  7.69270651E-14 -2.83055813E-14 -1.93215354E-13 -2.33237806E-13
 -7.60673957E-13  6.49243423E-13 -9.19513127E-14  8.87475215E-15  6.49281649E-13
  7.60675336E-13  8.75474181E-15  9.18915024E-14  2.79503941E-13  2.95016355E-15
 -1.32064791E-12 -3.67667716E-12  1.51324785E-12  4.14442958E-12  1.78513125E-11
 -1.48287631E-11  4.13871488E-12 -1.51194687E-12 -1.48303793E-11 -1.75243556E-11
 -4.33917574E-11  3.69339909E-11 -2.55475310E-12  2.47044932E-13  3.69341180E-11
  4.33897489E-11  2.39699858E-13  2.54976302E-12 -5.59391627E-13 -5.13344354E-15
  2.34276156E-12  6.54848574E-12 -2.95220813E-12 -8.08401091E-12 -3.17905846E-11
  2.62630666E-11 -8.06806739E-12  2.95367101E-12  2.62669215E-11  3.12074972E-11
  8.31205835E-11 -7.08105873E-11  6.53758256E-12 -6.18574512E-13 -7.08112844E-11
 -8.31174345E-11 -6.04972943E-13 -6.52949477E-12 -6.78877019E-13  1.29183605E-16
  2.35496667E-12  6.60734523E-12 -3.48055391E-12 -9.53329970E-12 -3.21079100E-11
  2.63033815E-11 -9.50636284E-12  3.49569196E-12  2.63110743E-11  3.15148125E-11
  9.53152887E-11 -8.12790341E-11  9.55237236E-12 -9.77243624E-13 -8.12841190E-11
 -9.53156628E-11 -9.60038060E-13 -9.54330453E-12 -1.65297916E-13  2.13841147E-16
  4.61844437E-13  1.29975104E-12 -8.08563848E-13 -2.21466294E-12 -6.30984724E-12
  5.16926795E-12 -2.20827186E-12  8.06227345E-13  5.17282442E-12  6.19539623E-12
  2.15761783E-11 -1.83842484E-11  1.68332225E-12 -2.80313972E-13 -1.83828602E-11
 -2.15711757E-11 -2.78293324E-13 -1.68181466E-12 -1.76368262E-14 -6.39040000E-17
  1.06693467E-14  2.56712489E-14 -8.27035625E-14 -2.29804341E-13 -1.37259887E-13
  1.13016771E-13 -2.28845396E-13  8.58648972E-14  1.12164121E-13  1.33006351E-13
  1.97175519E-12 -1.67729137E-12 -6.86684940E-14 -5.38210608E-14 -1.67651317E-12
 -1.97463318E-12 -5.42489919E-14  6.86831125E-14 -5.40271352E-05  2.98302069E-05
  9.54445317E-04  8.21856126E-04 -7.83976037E-04 -6.76126887E-04 -3.72402517E-03
  9.93825748E-03 -6.73694573E-04  7.83610671E-04  9.88991706E-03  3.63647303E-03
  5.84576194E-03 -1.57476279E-02 -6.87787453E-02 -1.90085879E-06 -1.57476357E-02
 -5.84572450E-03  1.90104101E-06  6.87781742E-02  1.69112330E-01 -5.90553314E-12
 -1.09447674E-05 -2.95932283E-05 -2.04040913E-11 -1.69112330E-01 -2.96119754E-05
  1.10344094E-05 -1.04192484E-04  5.75281982E-05  1.83817315E-03  1.58281867E-03
 -1.51140428E-03 -1.30348715E-03 -7.17213852E-03  1.91401931E-02 -1.29879323E-03
  1.51069919E-03  1.90470941E-02  7.00352136E-03  1.12675779E-02 -3.03532071E-02
 -1.32462344E-01 -3.66085188E-06 -3.03532223E-02 -1.12675055E-02  3.66124508E-06
  1.32461244E-01  3.25916025E-01  0.00000000E+00 -2.48423132E-05 -6.71321947E-05
 -3.28893779E-11 -3.25916025E-01 -6.71682999E-05  2.50149550E-05 -7.21128259E-05
  3.98159362E-05  1.27356280E-03  1.09664259E-03 -1.04633485E-03 -9.02394137E-04
 -4.96914965E-03  1.32611050E-02 -8.99147115E-04  1.04584711E-03  1.31966021E-02
  4.85232459E-03  7.80170135E-03 -2.10166426E-02 -9.17749577E-02 -2.53638943E-06
 -2.10166530E-02 -7.80165135E-03  2.53666895E-06  9.17741956E-02  2.25688962E-01
 -1.51159905E-12 -1.51849999E-05 -4.10519711E-05 -2.16182586E-11 -2.25688962E-01
 -4.10769863E-05  1.53046135E-05 -1.81204485E-05  1.00049166E-05  3.18837410E-04
  2.74545303E-04 -2.62680316E-04 -2.26545256E-04 -1.24403581E-03  3.31994239E-03
 -2.25727855E-04  2.62557529E-04  3.30379407E-03  1.21478863E-03  1.95751462E-03
 -5.27325798E-03 -2.29763378E-02 -6.34977015E-07 -5.27326062E-03 -1.95750196E-03
  6.35062519E-07  2.29761470E-02  5.66063335E-02  4.25021414E-12 -5.58563532E-06
 -1.50832103E-05 -3.13704324E-12 -5.66063335E-02 -1.50894728E-05  5.61558053E-06
 -3.00053882E-06  1.65664787E-06  4.47829793E-05  3.85618263E-05 -4.18580477E-05
 -3.61065632E-05 -1.74770351E-04  4.66408900E-04 -3.59610946E-05  4.18362071E-05
  4.64140992E-04  1.70662817E-04  3.04555345E-04 -8.20426693E-04 -3.22995575E-03
 -8.92080671E-08 -8.20427261E-04 -3.04552633E-04  8.91475407E-08  3.22992896E-03
  8.66452527E-03  4.16183052E-12 -1.29196613E-05 -3.48096890E-05 -1.29055318E-11
 -8.66452528E-03 -3.48105684E-05  1.29238665E-05 -1.00481431E-04  1.54143250E-07
  1.70729316E-06  4.57778467E-06  1.55369582E-07 -1.00121955E-04 -4.56665848E-06
  1.68707603E-06 -3.39433011E-06 -9.14403098E-06 -3.59490769E-07  3.09521563E-07
  4.53577261E-05 -6.95796891E-08 -7.70683499E-07 -2.06642257E-06 -7.01347710E-08
  4.51954590E-05  2.06139663E-06 -7.61562452E-07  1.53222605E-06  4.12769830E-06
  1.62252326E-07 -1.39705629E-07 -3.55493954E-13 -2.81062581E-13  3.49075187E-14
 -9.64100888E-14  1.82685917E-13  4.27939832E-14 -5.67093342E-13 -4.71276400E-13
  3.15335737E-14  2.08397622E-13  4.71349768E-13 -5.60310102E-13  1.20788232E-13
 -9.84097172E-14  2.76347199E-13 -3.93512243E-14  9.83506201E-14  1.16991560E-13
  3.95710570E-14  2.76294572E-13 -2.66776497E-11 -2.16538476E-11  1.68771687E-12
 -4.69465231E-12  9.15526675E-12  2.48270367E-12 -3.02858686E-11 -2.50294007E-11
  3.09765533E-12  1.11177174E-11  2.50273237E-11 -3.00118479E-11  3.47406382E-12
 -2.76652609E-12  1.71875843E-11 -2.01809251E-12  2.76360134E-12  3.18979741E-12
  2.02179922E-12  1.71882310E-11  4.73890634E-11  3.82145202E-11 -3.42321823E-12
  9.49879107E-12 -1.82725790E-11 -4.73998918E-12  5.93977769E-11  4.91738901E-11
 -5.17219728E-12 -2.17426119E-11 -4.91720234E-11  5.88060007E-11 -8.67500948E-12
  6.98799232E-12 -3.22283889E-11  4.01220955E-12 -6.98265294E-12 -8.16801469E-12
 -4.02142437E-12 -3.22281498E-11  4.84232852E-11  3.86309820E-11 -4.13240891E-12
  1.14415217E-11 -2.21157943E-11 -5.35348852E-12  6.90671906E-11  5.73316012E-11
 -4.77309284E-12 -2.56289168E-11 -5.73398110E-11  6.83016559E-11 -1.28960205E-11
  1.04369493E-11 -3.49977031E-11  4.74270616E-12 -1.04268143E-11 -1.23683622E-11
 -4.75772670E-12 -3.49882856E-11  1.08489309E-11  8.64059885E-12 -8.30797619E-13
  2.29065456E-12 -5.16882873E-12 -1.16372380E-12  1.41643285E-11  1.18096665E-11
 -1.11046202E-12 -5.95099849E-12 -1.18068470E-11  1.40210030E-11 -2.95685590E-12
  2.35302488E-12 -6.76293032E-12  9.85242908E-13 -2.35249843E-12 -2.84207991E-12
 -9.86204977E-13 -6.76336592E-12  1.04379308E-12  8.22006911E-13 -3.68141039E-14
  8.39700631E-14 -6.17556060E-13 -9.71985253E-14  7.13056494E-13  6.22436940E-13
 -1.22899119E-13 -6.96612915E-13 -6.24068414E-13  7.09278359E-13 -3.63255120E-13
  2.67788170E-13 -5.99980836E-14  5.42476696E-14 -2.64783111E-13 -3.49660430E-13
 -5.38491790E-14 -5.98289146E-14  7.93330476E-03  2.13717550E-02 -1.31064213E-03
  1.12854529E-03  9.61781096E-02 -8.86963783E-04  6.70342966E-03  1.79710453E-02
 -8.88135679E-04  9.41165880E-02 -1.79259377E-02  6.62171386E-03 -2.57202879E-03
  6.73028303E-03  1.53850337E-01  1.16340430E-08 -6.79773379E-03 -2.44983570E-03
 -1.88347522E-06  1.53850057E-01  1.50135424E-05  1.52495140E-05 -6.43822423E-03
  1.73434373E-02 -1.11367776E-05  1.56294535E-05 -1.73434363E-02 -6.43821968E-03
  1.52477974E-02  4.10764745E-02 -2.53337473E-03  2.18139497E-03  1.84858015E-01
 -1.70473084E-03  1.29396672E-02  3.46889245E-02 -1.70698325E-03  1.80895802E-01
 -3.46015007E-02  1.27812926E-02 -4.92596900E-03  1.28885460E-02  2.96719929E-01
  0.00000000E+00 -1.30181849E-02 -4.69111652E-03 -3.65497451E-06  2.96719381E-01
  3.34120849E-05  3.32326657E-05 -1.24170346E-02  3.34492932E-02 -2.53280913E-05
  3.45958451E-05 -3.34492911E-02 -1.24170245E-02  1.05514176E-02  2.84247635E-02
 -1.75633844E-03  1.51231786E-03  1.27921917E-01 -1.17966452E-03  8.96684721E-03
  2.40383528E-02 -1.18122318E-03  1.25180087E-01 -2.39776908E-02  8.85695347E-03
 -3.40478521E-03  8.90814031E-03  2.05560672E-01 -5.07934510E-09 -8.99784960E-03
 -3.24226874E-03 -2.53716204E-06  2.05560291E-01  2.41557457E-05  2.38878301E-05
 -8.60225587E-03  2.31729543E-02 -1.84179172E-05  2.49748994E-05 -2.31729528E-02
 -8.60224858E-03  2.62240355E-03  7.06456733E-03 -4.42511278E-04  3.81030054E-04
  3.17947756E-02 -2.93183696E-04  2.25190357E-03  6.03662576E-03 -2.93571094E-04
  3.11133447E-02 -6.02124458E-03  2.22403947E-03 -8.38895793E-04  2.19428747E-03
  5.15162802E-02 -1.06289630E-08 -2.21658284E-03 -7.98505673E-04 -6.45206015E-07
  5.15161820E-02  7.91166823E-06  7.57999115E-06 -2.15588355E-03  5.80756794E-03
 -6.22056343E-06  8.11524886E-06 -5.80756744E-03 -2.15588117E-03  4.01880073E-04
  1.08263608E-03 -5.96034024E-05  5.13223180E-05  4.87029638E-03 -4.49368830E-05
  3.13177683E-04  8.39913408E-04 -4.49962588E-05  4.76585204E-03 -8.37973013E-04
  3.09662581E-04 -1.38572203E-04  3.63241707E-04  7.31015487E-03  1.12157982E-08
 -3.66659231E-04 -1.32381060E-04 -7.88715502E-08  7.31014473E-03 -1.39944925E-06
 -1.08740259E-06 -3.05862476E-04  8.23940404E-04  1.29578996E-06 -1.36824129E-06
 -8.23940491E-04 -3.05862887E-04  1.04987941E-06 -2.81504129E-06  6.17903840E-05
  9.48176442E-08 -2.80816352E-06 -1.03751321E-06 -9.55056917E-08 -6.15693512E-05
 -2.20733995E-07 -1.90126490E-07  2.08746193E-06 -5.62355449E-06 -5.75079260E-07
  1.54195934E-06 -3.38460188E-05 -5.19412987E-08  1.53819743E-06  5.68295369E-07
  5.23172728E-08  3.37249349E-05  1.20956350E-07  1.04173559E-07 -1.14340418E-06
  3.08025289E-06  3.45592248E-14  9.54261881E-14  3.61969460E-13 -2.86261781E-13
 -5.64250170E-13  4.69062284E-13 -1.85791305E-13  4.31064268E-14  4.69097551E-13
  5.57652429E-13 -3.26078961E-14  2.11886636E-13  2.76268678E-13  3.92542175E-14
 -1.22005067E-13 -9.91826960E-14  3.93869345E-14 -2.76217070E-13 -9.91039531E-14
  1.18043429E-13  1.67574652E-12  4.66344709E-12  2.69580379E-11 -2.18776426E-11
 -3.02154126E-11  2.49650026E-11 -9.30612729E-12  2.49510322E-12  2.49633514E-11
  2.99427183E-11 -3.13861431E-12  1.12832626E-11  1.72716572E-11  2.01564454E-12
 -3.49983159E-12 -2.77711737E-12  2.01728569E-12 -1.72712034E-11 -2.77246006E-12
  3.21099249E-12 -3.38704902E-12 -9.39784194E-12 -4.80485733E-11  3.87384592E-11
  5.91012161E-11 -4.89311520E-11  1.86624950E-11 -4.77063057E-12 -4.89298055E-11
 -5.85176259E-11  5.27261754E-12 -2.21710073E-11 -3.21916713E-11 -3.99931694E-12
  8.81548198E-12  7.07457680E-12 -4.00614889E-12  3.21906897E-11  7.06604443E-12
 -8.29920533E-12 -4.12129238E-12 -1.14157070E-11 -4.89875201E-11  3.91091909E-11
  6.91284037E-11 -5.73519861E-11  2.21747448E-11 -5.37313361E-12 -5.73549476E-11