Title Card Required                                                     
SP        RHF                                                         CC-pVTZ             
Number of atoms                            I                3
Info1-9                                    I   N=           9
          13          12           0           0           0         110
           1           1           2
Full Title                                 C   N=           2
Title Card Required     
Route                                      C   N=           7
#p RHF/cc-pVTZ 6D 10F nosymm int=(nobasistransform,acc2e=10)
 punch=gamess           
Charge                                     I                0
Multiplicity                               I                1
Number of electrons                        I               10
Number of alpha electrons                  I                5
Number of beta electrons                   I                5
Number of basis functions                  I               65
Number of independent functions            I               65
Number of point charges in /Mol/           I                0
Number of translation vectors              I                0
Atomic numbers                             I   N=           3
           8           1           1
Nuclear charges                            R   N=           3
  8.00000000E+00  1.00000000E+00  1.00000000E+00
Current cartesian coordinates              R   N=           9
 -2.81480948E+00  5.62961885E-01  0.00000000E+00 -1.00067240E+00  5.62961885E-01
  0.00000000E+00 -3.42038089E+00  2.27304276E+00  0.00000000E+00
Number of symbols in /Mol/                 I                0
Force Field                                I                0
Atom Types                                 C   N=           3
                                    
Int Atom Types                             I   N=           3
           0           0           0
MM charges                                 R   N=           3
  0.00000000E+00  0.00000000E+00  0.00000000E+00
Integer atomic weights                     I   N=           3
          16           1           1
Real atomic weights                        R   N=           3
  1.59949146E+01  1.00782504E+00  1.00782504E+00
Atom fragment info                         I   N=           3
           0           0           0
Atom residue num                           I   N=           3
           0           0           0
Nuclear spins                              I   N=           3
           0           1           1
Nuclear ZEff                               R   N=           3
 -5.60000000E+00 -1.00000000E+00 -1.00000000E+00
Nuclear ZNuc                               R   N=           3
  8.00000000E+00  1.00000000E+00  1.00000000E+00
Nuclear QMom                               R   N=           3
  0.00000000E+00  0.00000000E+00  0.00000000E+00
Nuclear GFac                               R   N=           3
  0.00000000E+00  2.79284600E+00  2.79284600E+00
MicOpt                                     I   N=           3
          -1          -1          -1
Number of residues                         I                0
Number of secondary structures             I                0
Number of contracted shells                I               22
Number of primitive shells                 I               42
Pure/Cartesian d shells                    I                1
Pure/Cartesian f shells                    I                1
Highest angular momentum                   I                3
Largest degree of contraction              I                8
Shell types                                I   N=          22
           0           0           0           0           1           1
           1           2           2           3           0           0
           0           1           1           2           0           0
           0           1           1           2
Number of primitives per shell             I   N=          22
           8           8           1           1           3           1
           1           1           1           1           3           1
           1           1           1           1           3           1
           1           1           1           1
Shell to atom map                          I   N=          22
           1           1           1           1           1           1
           1           1           1           1           2           2
           2           2           2           2           3           3
           3           3           3           3
Primitive exponents                        R   N=          42
  1.53300000E+04  2.29900000E+03  5.22400000E+02  1.47300000E+02  4.75500000E+01
  1.67600000E+01  6.20700000E+00  6.88200000E-01  1.53300000E+04  2.29900000E+03
  5.22400000E+02  1.47300000E+02  4.75500000E+01  1.67600000E+01  6.20700000E+00
  6.88200000E-01  1.75200000E+00  2.38400000E-01  3.44600000E+01  7.74900000E+00
  2.28000000E+00  7.15600000E-01  2.14000000E-01  2.31400000E+00  6.45000000E-01
  1.42800000E+00  3.38700000E+01  5.09500000E+00  1.15900000E+00  3.25800000E-01
  1.02700000E-01  1.40700000E+00  3.88000000E-01  1.05700000E+00  3.38700000E+01
  5.09500000E+00  1.15900000E+00  3.25800000E-01  1.02700000E-01  1.40700000E+00
  3.88000000E-01  1.05700000E+00
Contraction coefficients                   R   N=          42
  5.20198307E-04  4.02334478E-03  2.07290833E-02  8.10823271E-02  2.36226352E-01
  4.43518209E-01  3.58670589E-01 -8.34979724E-03 -1.97236012E-04 -1.53501070E-03
 -7.95118391E-03 -3.21134529E-02 -1.00269643E-01 -2.34047112E-01 -3.01410928E-01
  1.03491965E+00  1.00000000E+00  1.00000000E+00  4.11634896E-02  2.57762836E-01
  8.02419274E-01  1.00000000E+00  1.00000000E+00  1.00000000E+00  1.00000000E+00
  1.00000000E+00  2.54948632E-02  1.90362766E-01  8.52162022E-01  1.00000000E+00
  1.00000000E+00  1.00000000E+00  1.00000000E+00  1.00000000E+00  2.54948632E-02
  1.90362766E-01  8.52162022E-01  1.00000000E+00  1.00000000E+00  1.00000000E+00
  1.00000000E+00  1.00000000E+00
Coordinates of each shell                  R   N=          66
 -2.81480948E+00  5.62961885E-01  0.00000000E+00 -2.81480948E+00  5.62961885E-01
  0.00000000E+00 -2.81480948E+00  5.62961885E-01  0.00000000E+00 -2.81480948E+00
  5.62961885E-01  0.00000000E+00 -2.81480948E+00  5.62961885E-01  0.00000000E+00
 -2.81480948E+00  5.62961885E-01  0.00000000E+00 -2.81480948E+00  5.62961885E-01
  0.00000000E+00 -2.81480948E+00  5.62961885E-01  0.00000000E+00 -2.81480948E+00
  5.62961885E-01  0.00000000E+00 -2.81480948E+00  5.62961885E-01  0.00000000E+00
 -1.00067240E+00  5.62961885E-01  0.00000000E+00 -1.00067240E+00  5.62961885E-01
  0.00000000E+00 -1.00067240E+00  5.62961885E-01  0.00000000E+00 -1.00067240E+00
  5.62961885E-01  0.00000000E+00 -1.00067240E+00  5.62961885E-01  0.00000000E+00
 -1.00067240E+00  5.62961885E-01  0.00000000E+00 -3.42038089E+00  2.27304276E+00
  0.00000000E+00 -3.42038089E+00  2.27304276E+00  0.00000000E+00 -3.42038089E+00
  2.27304276E+00  0.00000000E+00 -3.42038089E+00  2.27304276E+00  0.00000000E+00
 -3.42038089E+00  2.27304276E+00  0.00000000E+00 -3.42038089E+00  2.27304276E+00
  0.00000000E+00
Num ILSW                                   I              100
ILSW                                       I   N=         100
           0           1           0           0           2           0
           0           0           0           0           0          -1
           5           0           0           1           0           0
           0           0           0           0           0           0
           1           1           0           0           0           0
           0           0      100000           0          -1           0
           0           0           0           0           0           0
           0           0           0           1           0           0
           0 -2000000000           1           0           0           0
           0           0           4          52           0           0
           0           0           0           0           0           0
           0           0           0           3           0           1
           0           0           0           0           0           0
           0           0           0           0           0           0
           0           0           0           0           0           0
           0           0           0           0           0           0
           0           0           0           0
Num RLSW                                   I               52
RLSW                                       R   N=          52
  1.00000000E+00  1.00000000E+00  1.00000000E+00  1.00000000E+00  1.00000000E+00
  0.00000000E+00  0.00000000E+00  1.00000000E+00  0.00000000E+00  0.00000000E+00
  0.00000000E+00  0.00000000E+00  1.00000000E+00  0.00000000E+00  0.00000000E+00
  0.00000000E+00  0.00000000E+00  1.00000000E+00  0.00000000E+00  0.00000000E+00
  0.00000000E+00  0.00000000E+00  1.00000000E+00  0.00000000E+00  0.00000000E+00
  0.00000000E+00  0.00000000E+00  1.00000000E+00  0.00000000E+00  0.00000000E+00
  0.00000000E+00  0.00000000E+00  1.00000000E+00  0.00000000E+00  0.00000000E+00
  0.00000000E+00  0.00000000E+00  0.00000000E+00  1.00000000E+00  1.00000000E+00
  0.00000000E+00  1.00000000E+00  0.00000000E+00  0.00000000E+00  0.00000000E+00
  0.00000000E+00  0.00000000E+00  0.00000000E+00  0.00000000E+00  0.00000000E+00
  0.00000000E+00  0.00000000E+00
MxBond                                     I                2
NBond                                      I   N=           3
           2           1           1
IBond                                      I   N=           6
           2           3           1           0           1           0
RBond                                      R   N=           6
  1.00000000E+00  1.00000000E+00  1.00000000E+00  0.00000000E+00  1.00000000E+00
  0.00000000E+00
Virial Ratio                               R      2.000978222507579E+00
SCF Energy                                 R     -7.605707818512639E+01
Total Energy                               R     -7.605707818512639E+01
RMS Density                                R      5.327906513706680E-09
Job Status                                 I                1
Nuclear derivative order                   I                0
External E-field                           R   N=          35
  0.00000000E+00  0.00000000E+00  0.00000000E+00  0.00000000E+00  0.00000000E+00
  0.00000000E+00  0.00000000E+00  0.00000000E+00  0.00000000E+00  0.00000000E+00
  0.00000000E+00  0.00000000E+00  0.00000000E+00  0.00000000E+00  0.00000000E+00
  0.00000000E+00  0.00000000E+00  0.00000000E+00  0.00000000E+00  0.00000000E+00
  0.00000000E+00  0.00000000E+00  0.00000000E+00  0.00000000E+00  0.00000000E+00
  0.00000000E+00  0.00000000E+00  0.00000000E+00  0.00000000E+00  0.00000000E+00
  0.00000000E+00  0.00000000E+00  0.00000000E+00  0.00000000E+00  0.00000000E+00
IOpCl                                      I                0
IROHF                                      I                0
Alpha Orbital Energies                     R   N=          65
 -2.05532396E+01 -1.34144806E+00 -7.18414999E-01 -5.68158629E-01 -5.03399985E-01
  1.32709599E-01  1.98887533E-01  5.33474541E-01  5.54313527E-01  6.57724176E-01
  7.41591263E-01  7.91084780E-01  7.92266265E-01  8.49661210E-01  8.73725197E-01
  9.75433808E-01  1.17953100E+00  1.43990351E+00  1.49253568E+00  1.83330158E+00
  1.91119247E+00  2.01061580E+00  2.07533941E+00  2.20952365E+00  2.29814578E+00
  2.50419209E+00  2.71984827E+00  3.26719299E+00  3.42198112E+00  3.46560911E+00
  3.54039655E+00  3.56736757E+00  3.86085412E+00  3.87103018E+00  3.94263352E+00
  3.94987282E+00  3.97162486E+00  3.97286214E+00  4.31774052E+00  4.34033951E+00
  4.44673997E+00  4.53713018E+00  4.71553425E+00  4.81434351E+00  4.85682273E+00
  5.08763867E+00  5.68141094E+00  5.72544263E+00  6.01443139E+00  6.60324074E+00
  6.91898129E+00  6.93789702E+00  6.94772503E+00  7.01670208E+00  7.06018898E+00
  7.20907876E+00  7.24490893E+00  7.32944765E+00  7.57871846E+00  7.93380403E+00
  8.84618833E+00  8.90873025E+00  9.94174884E+00  1.52648169E+01  1.66563126E+01
Alpha MO coefficients                      R   N=        4225
  9.71811420E-01 -9.25323980E-03  4.60730057E-02 -5.15033526E-03  1.06482887E-03
  1.50669802E-03 -2.26902895E-17 -1.08019058E-03 -1.52843434E-03  1.62849348E-15
 -3.44901401E-04 -4.88024198E-04 -1.41238759E-15  2.04717680E-03  2.05866646E-03
  2.01299181E-03  1.87325939E-05  3.26248183E-16 -2.06889819E-16  3.49000185E-03
  3.52247848E-03  4.34114403E-03  5.29494728E-05 -1.36984963E-15  4.01165671E-16
  5.15212134E-05  1.40346624E-04 -1.28557940E-15  1.29534626E-04  9.27992298E-05
 -9.96269947E-16  1.15438348E-04  1.63341486E-04 -5.75861862E-17  1.75199485E-16
  3.81096097E-04  1.28117004E-03  3.08289771E-04 -3.38806781E-04  4.58945933E-05
 -2.90822187E-16 -5.53434233E-04  1.51094773E-04  1.79114777E-15  6.12243614E-05
  2.06133657E-05 -5.10199711E-06 -1.12034182E-04 -1.11847939E-15 -1.51513369E-16
  3.81096097E-04  1.28117004E-03  3.08289771E-04  1.56358177E-04 -3.04053399E-04
 -9.41889265E-17  3.27168348E-04 -4.71253599E-04  1.41235460E-16  8.61979922E-05
 -4.36026389E-06 -5.10199735E-06 -1.01822442E-04 -2.36353665E-16  9.00015247E-17
 -1.21528495E-02  4.97503864E-01  1.32333008E-01  2.84609754E-01  2.47445119E-02
  3.50126746E-02  2.41605392E-16  3.01748715E-02  4.26964558E-02  3.02316754E-16
  7.28060688E-03  1.03018205E-02 -7.91026539E-16  4.20967698E-03  3.33901962E-03
 -1.76037346E-03 -1.41950830E-03  6.49893534E-17  2.62595329E-17  3.89127586E-03
  2.80768186E-03 -6.33604908E-03 -1.76667741E-03 -1.61508310E-16  1.17341255E-17
  3.52516211E-03  3.23554954E-03 -2.17542796E-16 -1.19051660E-03  6.66602256E-04
 -2.65427874E-16 -1.48613542E-04 -2.10283304E-04 -1.27415603E-17  8.52792505E-17
  9.01605272E-02  6.91126901E-02  7.78340995E-03 -1.37596796E-02  5.67503661E-04
 -1.22574316E-16 -1.24633140E-02  2.16157398E-03  3.27921799E-16  4.70851091E-03
  2.71398173E-04  3.33292281E-04 -2.18641241E-04 -2.89605725E-16  1.07449705E-16
  9.01605271E-02  6.91126900E-02  7.78340995E-03  5.12802798E-03 -1.27810082E-02
 -2.18964622E-16  6.19792909E-03 -1.10268886E-02  7.36483024E-16  8.84973542E-04
  4.09493553E-03  3.33292283E-04 -1.78208916E-03 -1.32470988E-16 -2.32839361E-17
 -1.40453040E-11 -1.34981521E-10 -3.33418272E-11 -2.18952277E-10  2.33296804E-01
 -1.64877879E-01 -7.58220659E-17  2.52230301E-01 -1.78258751E-01 -2.94815395E-15
  1.27258885E-01 -8.99376874E-02 -3.81624888E-17  1.05377226E-02 -1.05377226E-02
 -6.66515509E-13  4.30888438E-03 -2.74739833E-17  1.21030385E-16  1.39743285E-02
 -1.39743285E-02 -2.46410870E-12  5.71411569E-03 -3.89371791E-17 -7.70360108E-17
  1.04417537E-02 -6.67608125E-03  1.18133460E-15  5.11291930E-03 -4.55719190E-03
  2.45722209E-16  1.69151317E-03 -1.19544331E-03  8.03174407E-16  2.59543348E-17
  1.46584326E-01  2.15608993E-01  6.15781263E-02 -1.67457837E-02 -3.97875248E-03
 -2.14201611E-16 -3.40296382E-02 -6.64327461E-03  3.79826350E-16  9.86507910E-03
 -3.71964154E-04 -8.48439779E-04  1.50239037E-03 -2.20223675E-17  5.97465451E-17
 -1.46584326E-01 -2.15608993E-01 -6.15781264E-02 -1.83932037E-03  1.71134053E-02
 -8.00354437E-18 -5.09710053E-03  3.42953195E-02  2.23641211E-16  5.00948501E-05
 -9.54320980E-03  8.48439776E-04  2.55193332E-03 -2.29407604E-16 -5.84973560E-17
  4.97723368E-03  1.76384905E-01  4.28936097E-02  3.07555452E-01 -1.85576158E-01
 -2.62584192E-01  1.26928889E-15 -2.04564557E-01 -2.89452155E-01  4.72822066E-15
 -1.66203785E-01 -2.35172918E-01  1.08316730E-16 -3.86752897E-03 -5.42279852E-03
  3.92822785E-03 -2.53569100E-03  1.03458890E-16  3.46810303E-17 -1.45919372E-02
 -2.09559172E-02  1.72444176E-03 -1.03757493E-02 -6.54462238E-16  1.69346824E-16
 -1.20135663E-02 -1.50790223E-02 -1.10634590E-15 -2.34138919E-03 -5.88864545E-03
 -7.28214944E-16 -2.40239276E-03 -3.39930715E-03 -5.84872517E-16  5.59194688E-17
 -8.35150852E-02 -1.37822728E-01 -3.15819827E-02  6.00624574E-03 -6.88053203E-03
  2.08440016E-17  1.12315782E-02 -2.44891554E-02  1.17658713E-15 -1.86083449E-03
 -4.12098879E-04  7.00468253E-04  4.00561559E-03 -5.16734091E-16 -1.67755592E-17
 -8.35150853E-02 -1.37822728E-01 -3.15819828E-02 -8.49080101E-03  3.36496761E-03
  1.37280493E-16 -2.68336718E-02  2.41270348E-03  2.35500330E-16 -2.75661752E-03
  4.83684157E-04  7.00468251E-04  3.63932908E-03  4.88269219E-17 -6.16534500E-17
  1.64070396E-15  2.85473950E-15 -2.04477754E-15  3.46040819E-14  9.79492036E-16
  2.91672118E-16  3.61940796E-01 -1.19636338E-15  7.51361154E-15  4.11776017E-01
  4.38758002E-15  1.38429374E-14  3.84242444E-01 -7.04990841E-16 -1.05680835E-15
 -6.70927090E-16  7.90762562E-17  2.91700571E-03  4.12746763E-03 -2.72493268E-15
 -5.23339279E-16 -4.43602898E-15 -1.20768273E-15  9.81582157E-03  1.38890664E-02
  1.44438682E-15 -1.12892351E-15  1.16511562E-02  2.89565505E-16 -7.52093682E-16
  9.97748324E-03  5.96422790E-16 -9.01548953E-16  9.12542777E-03 -1.38918002E-03
  1.63035754E-15 -1.06532131E-14 -2.59481283E-15 -2.16400192E-16  1.79025693E-16
  1.04071014E-02  4.85685547E-15 -1.52174624E-15  3.10753019E-02 -3.22703999E-16
  8.95505097E-16  5.66402478E-16  8.46454236E-17 -5.48025368E-03  2.09421253E-04
  1.09465507E-15 -2.48157900E-14 -1.04945826E-15 -1.38763703E-16  7.76890295E-16
  1.04071014E-02 -3.75248922E-15  7.84084754E-15  3.10753019E-02  1.04104112E-15
 -1.48924336E-17  1.22265878E-15  4.56422648E-16  2.02675546E-03 -5.09600824E-03
  1.87406057E-02  1.94329584E-01 -1.16105669E-01  1.97448344E+00  4.86179089E-02
  6.87927505E-02 -7.65250991E-17  8.34337123E-02  1.18055973E-01 -4.72015751E-16
  2.41374286E-01  3.41536718E-01  1.76212024E-16 -3.03086269E-02 -3.00376471E-02
 -3.01085971E-02  4.41801897E-04  4.92784615E-17  2.40909749E-16 -1.86687486E-01
 -1.93294229E-01 -2.52735325E-01 -1.07715467E-02  1.08616724E-16 -3.27136187E-16
  1.14216331E-02  1.04780283E-02  6.45128163E-17 -3.86560161E-03  2.15512491E-03
  2.71712800E-16 -3.22736808E-04 -4.56662014E-04  2.68938750E-17  1.04685920E-17
 -4.71747881E-02 -9.18686640E-02 -1.01680635E+00 -7.32448303E-03  2.03388026E-03
 -1.51818789E-16  1.25018069E-01 -9.59023637E-03  1.59191732E-16 -4.67106444E-02
 -2.13799941E-02 -1.98305687E-02  3.94824210E-04  1.51150035E-16  2.80249315E-17
 -4.71747882E-02 -9.18686637E-02 -1.01680635E+00  4.36218263E-03 -6.22543843E-03
 -4.02225696E-17 -5.07720444E-02  1.14645932E-01  3.12686656E-16 -2.44176952E-02
 -4.36729433E-02 -1.98305687E-02  9.51043149E-03  8.12724337E-18 -7.92041736E-17
 -3.19758490E-11 -1.10552329E-10  4.46070445E-11 -1.32214909E-09 -1.16453324E-01
  8.23010718E-02 -2.21879673E-16 -1.28873485E-01  9.10787739E-02  3.70444401E-16
 -6.93379517E-01  4.90032191E-01 -2.47419842E-16 -4.30020332E-04  4.30020359E-04
  1.77019993E-11 -1.75835709E-04 -5.03614723E-17 -1.23739734E-17 -7.48124188E-02
  7.48124190E-02  1.27080681E-10 -3.05908664E-02  1.18528653E-16  6.88254120E-17
 -3.70836498E-02  2.74901833E-02 -1.67442206E-16 -1.57764926E-02  9.42967088E-03
  5.64372065E-17 -6.80486646E-03  4.80920411E-03 -5.78379545E-17 -2.51571563E-17
  5.81453287E-02 -2.65748931E-02  1.79604426E+00  1.43808634E-03  3.08425132E-03
  1.18385655E-17 -1.70386346E-01 -9.68751140E-03 -2.80799348E-16  6.48334170E-02
  3.01519425E-02  3.18538239E-02 -1.74998567E-03  1.45239161E-16  2.27395684E-17
 -5.81453287E-02  2.65748935E-02 -1.79604426E+00 -2.42730015E-03 -2.38514412E-03
 -4.50339290E-17 -4.77442816E-02  1.63846996E-01  2.08297590E-16 -3.49701511E-02
 -6.00152083E-02 -3.18538239E-02  1.39611023E-02 -5.43659469E-17  1.94711557E-16
 -7.54764365E-11  5.31634482E-10  4.56583014E-10  5.03859506E-10 -1.14892139E-01
  8.11977362E-02 -1.70832823E-17 -4.35214304E-02  3.07579059E-02  4.30210845E-15
 -1.04801958E+00  7.40667011E-01 -2.44632749E-15  2.46218566E-02 -2.46218565E-02
  1.21937560E-10  1.00678997E-02  1.61177791E-16 -3.41528107E-17 -3.04930835E-02
  3.04930840E-02  4.71771728E-10 -1.24686498E-02  6.61255829E-16 -9.11532330E-18
 -4.68154633E-02  3.46350034E-02 -1.43086557E-15 -1.99604211E-02  1.20282883E-02
 -1.00805456E-15 -1.48709828E-02  1.05097716E-02 -5.26460935E-16 -4.72207833E-17
 -2.72519176E-02  1.85024431E+00 -6.69585864E-01 -1.88390200E-02  3.87364574E-03
  5.38425239E-17  2.76625012E-02  6.61172891E-02 -6.33720955E-16 -9.06766330E-02
 -1.11435128E-01 -1.06815684E-01 -7.97255585E-03  2.30197334E-16 -2.19127909E-16
  2.72519179E-02 -1.85024432E+00  6.69585871E-01 -9.94005337E-03  1.64653923E-02
 -2.96406271E-17 -5.30909656E-02 -4.81462272E-02  1.92007592E-15  1.04776970E-01
  9.73347937E-02  1.06815685E-01  1.37381958E-02 -1.28785972E-16  4.59143133E-16
  7.48868662E-03 -1.47718953E-01 -9.91897837E-02 -6.71005563E-01 -5.77102678E-02
 -8.16581397E-02 -4.02128282E-16  2.24697189E-03  3.17939204E-03 -4.60772568E-15
 -4.36306520E-01 -6.17359439E-01  1.95360046E-15  6.20307426E-03 -4.72071747E-03
 -2.72785889E-02 -1.78100058E-02  2.03013471E-16  5.49955090E-17 -7.16761677E-02
 -6.03485014E-02 -7.80258327E-02  1.84684772E-02 -7.59289289E-17 -1.70737345E-16
 -2.37455932E-02 -3.06364847E-02  1.46956971E-15 -5.94130998E-03 -1.23817082E-02
  6.29672412E-16 -1.06318890E-02 -1.50437750E-02  5.68824737E-16 -1.94927343E-16
 -3.89357831E-02  1.87840202E+00 -6.79565607E-01 -8.17252488E-03  9.19584864E-04
 -3.23243950E-16  8.29188154E-02 -1.45878367E-01  1.40793382E-15 -1.21400911E-01
 -1.17674948E-01 -1.21844746E-01  1.48677977E-02 -2.51891285E-16  1.16181609E-16
 -3.89357828E-02  1.87840200E+00 -6.79565602E-01  3.59488366E-03 -7.39679708E-03
  5.33508749E-17 -1.65189871E-01  2.94675154E-02 -9.84591146E-17 -1.26193181E-01
 -1.12882677E-01 -1.21844745E-01  1.29082340E-02  1.09921861E-16 -1.02561766E-16
  4.39225348E-02  1.33037196E-01  2.09940383E-01  2.95094471E+00 -1.11455396E-01
 -1.57705738E-01  2.18164123E-15 -2.66298352E-01 -3.76803455E-01  1.72006679E-15
  1.35508998E+00  1.91740798E+00 -7.12783999E-15  1.64812442E-02  1.54992996E-02
  4.85074755E-02 -1.60094940E-03  4.03507999E-16 -2.72971782E-17  4.88189612E-01
  4.25145621E-01  4.52580613E-02 -1.02786092E-01 -6.14795488E-16 -8.36924756E-16
  1.22242139E-01  1.42245801E-01  8.92907147E-16  6.15849367E-03  4.99330632E-02
  1.29513270E-16  2.76319918E-02  3.90983644E-02  2.08329680E-16  1.45300403E-16
  6.07917267E-03 -1.87305323E+00 -3.39738297E-01  3.93313204E-02  3.00550124E-03
 -4.52960156E-16  1.04405041E+00 -1.06575609E-01  4.52386458E-15 -1.03107689E-01
  1.84274279E-02  2.78172868E-02  8.83502942E-03 -1.13919447E-16 -5.27401630E-17
  6.07917283E-03 -1.87305323E+00 -3.39738296E-01 -1.02959546E-02  3.80785913E-02
 -4.31605046E-17 -4.48973783E-01  9.48589562E-01  7.47658613E-16  6.99748683E-05
 -8.47502356E-02  2.78172869E-02  5.10244703E-02  2.39899566E-16 -5.42679388E-16
 -5.98503638E-15 -1.51208922E-14 -4.85228462E-15  2.10012649E-14 -1.13762233E-15
  1.57030900E-15  1.05355001E-01  4.04994228E-15 -1.49545104E-15  1.56789318E+00
  1.01234216E-14 -1.39251454E-14 -1.30633349E+00  1.26075463E-15  1.61703898E-15
  1.36810374E-15 -1.03292774E-16  3.86909096E-03  5.47463709E-03 -2.86763101E-15
 -7.56211078E-15 -3.54235105E-15  2.38272352E-15 -1.01369368E-02 -1.43434338E-02
 -1.52936310E-15  1.02638039E-16 -3.92881048E-01 -2.56404009E-16  3.73466189E-16
 -1.78047439E-01 -8.62822901E-16  5.06381333E-16 -1.77693680E-01  5.76765433E-04
 -1.96689204E-16 -4.01428461E-15 -9.62039739E-15  1.87146215E-16 -1.71449471E-16
  4.98697327E-03  1.81116905E-15  1.67784064E-15 -1.61132384E-02 -2.78460420E-16
 -3.62632802E-16 -3.24117091E-16  2.98500713E-17 -1.19308711E-02  3.06048184E-04
  2.21114622E-15  1.19882211E-14  1.54788197E-15  5.79368069E-16 -1.20799521E-15
  4.98697332E-03  4.14777660E-16 -7.31261581E-15 -1.61132391E-02  4.02207210E-16
  1.98143264E-15  8.98769329E-16 -5.00901391E-16  4.27110039E-03 -1.11443731E-02
  2.93319092E-02 -1.35358760E-01 -6.88841336E-01  4.10032571E+00 -2.77862442E-02
 -3.93166246E-02 -1.85952108E-16 -6.28603655E-03 -8.89453487E-03 -8.41685337E-15
 -6.50884051E-02 -9.20979881E-02 -6.37418785E-15 -1.22138615E-01 -1.06513877E-01
 -1.15825048E-01  2.54743677E-02  4.90311122E-16 -1.79199210E-16 -7.27587804E-01
 -8.18175458E-01 -8.94842174E-01 -1.47692912E-01 -1.12224339E-15 -1.51570971E-16
  2.69609799E-02  1.75383419E-02  2.36387043E-15 -2.04857604E-02 -1.33471163E-03
  2.10893255E-16  3.44047187E-03  4.86815495E-03  1.09121553E-15  4.22072737E-16
 -1.38668098E-02 -1.86425452E-01 -6.54534786E-01  2.32216791E-02 -3.27310742E-02
 -2.44513661E-15  3.01690983E-01  6.19730191E-01  2.93864731E-14 -9.14747416E-02
 -2.73479121E-04 -8.06470033E-03 -4.30930067E-02 -7.73466339E-16 -2.11760819E-16
 -1.38668094E-02 -1.86425439E-01 -6.54534771E-01 -3.86052241E-02  1.09638603E-02
  1.87153004E-16  4.83476872E-01  4.91256619E-01 -5.92193034E-15  1.30502457E-02
 -1.04798465E-01 -8.06470032E-03 -3.52644688E-04  3.98160459E-17 -2.67148731E-16
 -3.81977851E-12  8.10500166E-10  3.24539791E-09 -1.74840436E-08 -1.82205579E-01
  1.28770172E-01 -3.63527855E-16 -1.88112934E-01  1.32945078E-01 -7.75000445E-15
  2.45991457E+00 -1.73849573E+00  8.52681547E-15 -1.68161070E-02  1.68161081E-02
  5.13070874E-10 -6.87612188E-03  3.40151767E-16 -4.36803518E-16  3.75685296E-01
 -3.75685289E-01  4.13926918E-09  1.53618060E-01  6.95025743E-16  1.48796048E-15
  1.32763236E-01 -1.04713910E-01  1.86327323E-15  5.25141769E-02 -2.25080726E-02
  1.16484694E-15  2.13066131E-02 -1.50580254E-02  1.45802144E-15  2.84637537E-16
 -3.23389117E-02 -1.40359522E+00 -1.48037190E+00  6.84073975E-02 -3.43521800E-03
 -4.61873005E-16  1.11278234E+00  1.75850926E-02  7.35992874E-15 -1.75383939E-01
  1.06097616E-02 -1.29987332E-04  6.21359082E-03  3.81832142E-16 -7.88109264E-16
  3.23389116E-02  1.40359522E+00  1.48037191E+00  2.60730382E-02 -6.33369517E-02
  7.96465570E-16  3.54877939E-01 -1.05482483E+00 -1.23699840E-14  1.35014158E-02
  1.51272762E-01  1.29987293E-04 -7.24075021E-02 -7.03630835E-16  6.89099504E-16
  1.07263088E-15 -6.38337402E-16 -2.86890463E-14  2.86603934E-13  2.08173058E-15
  8.11623282E-16 -1.59579440E-11  3.12222480E-14  1.25925402E-14 -1.01351742E-09
  4.14451251E-14  1.13451363E-13  7.97121629E-10 -5.04179324E-15 -6.39747296E-15
 -4.15377807E-15 -1.44205974E-15  2.33101699E-02 -1.64739993E-02 -3.68731198E-14
 -3.05966662E-14 -3.93787979E-14  4.37143680E-15 -3.32978909E-02  2.35326225E-02
 -6.17804223E-15  2.67083524E-16  2.56219538E-10 -2.87724404E-15 -1.10556403E-16
 -1.35205945E-02 -3.29209100E-15 -8.69543418E-16  1.35205947E-02 -5.52858349E-03
  8.81305723E-15 -1.26721696E-13  1.05392244E-14 -1.37172982E-16  2.81693391E-15
 -5.82410493E-02  2.14338205E-14 -5.03011838E-14  8.39323665E-01  3.03201089E-15
  5.51250699E-15  7.24986193E-15  2.92861574E-15 -2.71585540E-02 -1.19918910E-02
  5.69983155E-15 -1.33221610E-13 -2.41527681E-14  2.47270562E-15  1.83048086E-15
  5.82410493E-02 -5.85539589E-14  1.00509724E-14 -8.39323665E-01  1.85938761E-15
  2.26128509E-15  5.13907009E-15  3.53096000E-15  2.23834227E-03  2.96037553E-02
 -1.01089531E-02 -1.70917708E-01 -8.24764525E-01  7.22158764E+00 -3.66145404E-03
 -5.18083774E-03  1.76530076E-15  3.04677257E-01  4.31108349E-01 -1.35940507E-14
  1.30251552E+00  1.84301685E+00 -2.65073266E-14 -1.34035645E-01 -1.45952777E-01
 -1.11804994E-01 -1.94295348E-02 -1.28459139E-15  1.63287325E-15 -9.38902459E-01
 -9.17982913E-01 -1.08889247E+00  3.41069518E-02  1.56674578E-15 -4.16480029E-15
 -2.85069066E-02 -5.30074278E-02  4.76632478E-15 -3.27557096E-02 -2.93482092E-02
  1.87372157E-15 -3.13662440E-02 -4.43822089E-02  5.78629649E-16  1.74471926E-15
  1.16017708E-01 -2.51319192E+00 -4.47827292E-01  2.21240269E-02  4.04614712E-02
  1.24519781E-16  6.19185586E-01 -7.24155466E-01 -1.42133323E-14 -1.92068553E-02
  7.41448527E-02  1.02784540E-01  4.09578570E-02  9.58090550E-16  6.49501999E-16
  1.16017708E-01 -2.51319192E+00 -4.47827292E-01  3.07555095E-02  3.43613423E-02
 -5.04515191E-15 -8.89307386E-01  3.41941957E-01  7.58011979E-14  4.14206125E-02
  1.35173851E-02  1.02784540E-01  6.57484839E-02  4.92814870E-16 -4.62011506E-15
  9.09831871E-15  1.19044074E-14 -3.54146614E-14  2.85368767E-13 -1.16599325E-15
 -1.36277436E-15  2.87541897E-02  1.46331095E-14  1.22044055E-14  5.07123019E-02
  4.25213626E-14  5.87373909E-14  1.14317625E+00 -9.23558610E-15 -9.63470817E-15
 -8.93070642E-15 -2.87660459E-16 -1.27921880E-02 -1.81005274E-02 -3.40490635E-14
 -4.40530069E-14 -4.72516230E-14 -2.77777562E-15 -7.68516379E-03 -1.08742555E-02
  1.50748205E-15 -1.19171920E-15 -1.13317857E-02 -1.93971908E-15 -7.96986141E-16
  1.58613642E-02 -9.28384789E-16 -1.44639209E-15  1.10659407E-02 -7.81839518E-03
  4.30715571E-15 -9.51675597E-14 -2.25635685E-14  3.27670305E-15  7.30825618E-16
  7.50219082E-02  3.34508861E-14 -1.43344710E-14 -1.01968838E+00 -5.73676083E-15
  3.54182251E-15  4.72309412E-15  4.87255671E-16  3.04589527E-02 -2.13320772E-02
 -1.19710578E-15 -6.86712207E-14 -2.82828452E-14  2.32803454E-16  2.16207535E-15
  7.50219082E-02 -1.92376710E-14  1.76121609E-14 -1.01968838E+00 -3.54471161E-16
 -4.46900322E-15  1.04146330E-15  1.97934623E-15 -3.02759084E-02  2.15910786E-02
  5.10108861E-11  1.27896965E-10  1.59048364E-10  6.56631020E-10  8.56061002E-03
 -6.05004097E-03 -1.53455976E-15  6.22885159E-02 -4.40211705E-02 -1.95851497E-15
  1.49331316E+00 -1.05536939E+00  3.72439303E-15 -2.49557609E-03  2.49557612E-03
  1.71590010E-11 -1.02044333E-03 -3.41117486E-16 -1.93736711E-16  4.06855247E-02
 -4.06855242E-02  1.38850395E-10  1.66363479E-02  1.66969799E-16  5.39264101E-16