title                                                                   
Stability UHF                                                         GenECP              
Number of atoms                            I               12
Info1-9                                    I   N=           9
          32          31           0           0           0         110
           7           1           2
Full Title                                 C   N=           1
title       
Route                                      C   N=           6
#p UHF genecp nosymm guess=mix stable=opt int(nobasistransfo
rm,acc2e=10)
Charge                                     I                2
Multiplicity                               I                1
Number of electrons                        I               72
Number of alpha electrons                  I               36
Number of beta electrons                   I               36
Number of basis functions                  I              130
Number of independent functions            I              130
Number of point charges in /Mol/           I                0
Number of translation vectors              I                0
Atomic numbers                             I   N=          12
          29          29           8           8           7           7
           1           1           1           1           1           1
Nuclear charges                            R   N=          12
  1.90000000E+01  1.90000000E+01  8.00000000E+00  8.00000000E+00  7.00000000E+00
  7.00000000E+00  1.00000000E+00  1.00000000E+00  1.00000000E+00  1.00000000E+00
  1.00000000E+00  1.00000000E+00
Current cartesian coordinates              R   N=          36
  0.00000000E+00  2.64561657E+00  0.00000000E+00  0.00000000E+00 -2.64561657E+00
  0.00000000E+00  0.00000000E+00  0.00000000E+00  2.17318504E+00  0.00000000E+00
  0.00000000E+00 -2.17318504E+00  0.00000000E+00  6.42506882E+00  0.00000000E+00
  0.00000000E+00 -6.42506882E+00  0.00000000E+00 -1.77576241E+00  7.07139295E+00
  0.00000000E+00  1.77576241E+00 -7.07139295E+00  0.00000000E+00  8.87880261E-01
  7.07139295E+00  1.53785534E+00 -8.87880261E-01 -7.07139295E+00 -1.53785534E+00
  8.87880261E-01  7.07139295E+00 -1.53785534E+00 -8.87880261E-01 -7.07139295E+00
  1.53785534E+00
Number of symbols in /Mol/                 I                0
Force Field                                I                0
Atom Types                                 C   N=          12
                                                            
                                                            
                        
Int Atom Types                             I   N=          12
           0           0           0           0           0           0
           0           0           0           0           0           0
MM charges                                 R   N=          12
  0.00000000E+00  0.00000000E+00  0.00000000E+00  0.00000000E+00  0.00000000E+00
  0.00000000E+00  0.00000000E+00  0.00000000E+00  0.00000000E+00  0.00000000E+00
  0.00000000E+00  0.00000000E+00
Integer atomic weights                     I   N=          12
          63          63          16          16          14          14
           1           1           1           1           1           1
Real atomic weights                        R   N=          12
  6.29295992E+01  6.29295992E+01  1.59949146E+01  1.59949146E+01  1.40030740E+01
  1.40030740E+01  1.00782504E+00  1.00782504E+00  1.00782504E+00  1.00782504E+00
  1.00782504E+00  1.00782504E+00
Atom fragment info                         I   N=          12
           0           0           0           0           0           0
           0           0           0           0           0           0
Atom residue num                           I   N=          12
           0           0           0           0           0           0
           0           0           0           0           0           0
Nuclear spins                              I   N=          12
           3           3           0           0           2           2
           1           1           1           1           1           1
Nuclear ZEff                               R   N=          12
 -1.76900000E+01 -1.76900000E+01 -5.60000000E+00 -5.60000000E+00 -4.55000000E+00
 -4.55000000E+00 -1.00000000E+00 -1.00000000E+00 -1.00000000E+00 -1.00000000E+00
 -1.00000000E+00 -1.00000000E+00
Nuclear ZNuc                               R   N=          12
  2.90000000E+01  2.90000000E+01  8.00000000E+00  8.00000000E+00  7.00000000E+00
  7.00000000E+00  1.00000000E+00  1.00000000E+00  1.00000000E+00  1.00000000E+00
  1.00000000E+00  1.00000000E+00
Nuclear QMom                               R   N=          12
 -2.20000000E+01 -2.20000000E+01  0.00000000E+00  0.00000000E+00  2.04400000E+00
  2.04400000E+00  0.00000000E+00  0.00000000E+00  0.00000000E+00  0.00000000E+00
  0.00000000E+00  0.00000000E+00
Nuclear GFac                               R   N=          12
  2.22330000E+00  2.22330000E+00  0.00000000E+00  0.00000000E+00  4.03761000E-01
  4.03761000E-01  2.79284600E+00  2.79284600E+00  2.79284600E+00  2.79284600E+00
  2.79284600E+00  2.79284600E+00
MicOpt                                     I   N=          12
          -1          -1          -1          -1          -1          -1
          -1          -1          -1          -1          -1          -1
Number of residues                         I                0
Number of secondary structures             I                0
Number of contracted shells                I               58
Number of primitive shells                 I              154
Pure/Cartesian d shells                    I                0
Pure/Cartesian f shells                    I                0
Highest angular momentum                   I                2
Largest degree of contraction              I                8
Shell types                                I   N=          58
           0           0           0           1           1           1
          -2          -2           0           0           0           1
           1           1          -2          -2           0           0
           0           1           1          -2           0           0
           0           1           1          -2           0           0
           0           1           1          -2           0           0
           0           1           1          -2           0           0
           1           0           0           1           0           0
           1           0           0           1           0           0
           1           0           0           1
Number of primitives per shell             I   N=          58
           3           4           1           3           1           1
           4           1           3           4           1           3
           1           1           4           1           8           8
           1           3           1           1           8           8
           1           3           1           1           8           8
           1           3           1           1           8           8
           1           3           1           1           3           1
           1           3           1           1           3           1
           1           3           1           1           3           1
           1           3           1           1
Shell to atom map                          I   N=          58
           1           1           1           1           1           1
           1           1           2           2           2           2
           2           2           2           2           3           3
           3           3           3           3           4           4
           4           4           4           4           5           5
           5           5           5           5           6           6
           6           6           6           6           7           7
           7           8           8           8           9           9
           9          10          10          10          11          11
          11          12          12          12
Primitive exponents                        R   N=         154
  8.17600000E+00  2.56800000E+00  9.58700000E-01  8.17600000E+00  2.56800000E+00
  9.58700000E-01  1.15300000E-01  3.96000000E-02  2.56300000E+01  3.16600000E+00
  1.02300000E+00  8.60000000E-02  2.40000000E-02  4.13400000E+01  1.14200000E+01
  3.83900000E+00  1.23000000E+00  3.10200000E-01  8.17600000E+00  2.56800000E+00
  9.58700000E-01  8.17600000E+00  2.56800000E+00  9.58700000E-01  1.15300000E-01
  3.96000000E-02  2.56300000E+01  3.16600000E+00  1.02300000E+00  8.60000000E-02
  2.40000000E-02  4.13400000E+01  1.14200000E+01  3.83900000E+00  1.23000000E+00
  3.10200000E-01  1.17200000E+04  1.75900000E+03  4.00800000E+02  1.13700000E+02
  3.70300000E+01  1.32700000E+01  5.02500000E+00  1.01300000E+00  1.17200000E+04
  1.75900000E+03  4.00800000E+02  1.13700000E+02  3.70300000E+01  1.32700000E+01
  5.02500000E+00  1.01300000E+00  3.02300000E-01  1.77000000E+01  3.85400000E+00
  1.04600000E+00  2.75300000E-01  1.18500000E+00  1.17200000E+04  1.75900000E+03
  4.00800000E+02  1.13700000E+02  3.70300000E+01  1.32700000E+01  5.02500000E+00
  1.01300000E+00  1.17200000E+04  1.75900000E+03  4.00800000E+02  1.13700000E+02
  3.70300000E+01  1.32700000E+01  5.02500000E+00  1.01300000E+00  3.02300000E-01
  1.77000000E+01  3.85400000E+00  1.04600000E+00  2.75300000E-01  1.18500000E+00
  9.04600000E+03  1.35700000E+03  3.09300000E+02  8.77300000E+01  2.85600000E+01
  1.02100000E+01  3.83800000E+00  7.46600000E-01  9.04600000E+03  1.35700000E+03
  3.09300000E+02  8.77300000E+01  2.85600000E+01  1.02100000E+01  3.83800000E+00
  7.46600000E-01  2.24800000E-01  1.35500000E+01  2.91700000E+00  7.97300000E-01
  2.18500000E-01  8.17000000E-01  9.04600000E+03  1.35700000E+03  3.09300000E+02
  8.77300000E+01  2.85600000E+01  1.02100000E+01  3.83800000E+00  7.46600000E-01
  9.04600000E+03  1.35700000E+03  3.09300000E+02  8.77300000E+01  2.85600000E+01
  1.02100000E+01  3.83800000E+00  7.46600000E-01  2.24800000E-01  1.35500000E+01
  2.91700000E+00  7.97300000E-01  2.18500000E-01  8.17000000E-01  1.30100000E+01
  1.96200000E+00  4.44600000E-01  1.22000000E-01  7.27000000E-01  1.30100000E+01
  1.96200000E+00  4.44600000E-01  1.22000000E-01  7.27000000E-01  1.30100000E+01
  1.96200000E+00  4.44600000E-01  1.22000000E-01  7.27000000E-01  1.30100000E+01
  1.96200000E+00  4.44600000E-01  1.22000000E-01  7.27000000E-01  1.30100000E+01
  1.96200000E+00  4.44600000E-01  1.22000000E-01  7.27000000E-01  1.30100000E+01
  1.96200000E+00  4.44600000E-01  1.22000000E-01  7.27000000E-01
Contraction coefficients                   R   N=         154
 -4.21025989E-01  7.38592381E-01  5.52569186E-01  1.78766454E-01 -3.59227208E-01
 -4.70482380E-01  1.08074072E+00  1.00000000E+00 -4.89173002E-02  6.27285402E-01
  4.71618802E-01  1.00000000E+00  1.00000000E+00  4.65424016E-02  2.22782408E-01
  4.53905916E-01  5.31476918E-01  1.00000000E+00 -4.21025989E-01  7.38592381E-01
  5.52569186E-01  1.78766454E-01 -3.59227208E-01 -4.70482380E-01  1.08074072E+00
  1.00000000E+00 -4.89173002E-02  6.27285402E-01  4.71618802E-01  1.00000000E+00
  1.00000000E+00  4.65424016E-02  2.22782408E-01  4.53905916E-01  5.31476918E-01
  1.00000000E+00  7.09645947E-04  5.46727229E-03  2.78231186E-02  1.04747740E-01
  2.82920846E-01  4.48495239E-01  2.70816885E-01  1.54502916E-02 -3.14443412E-04
 -2.48213768E-03 -1.23163554E-02 -5.05389173E-02 -1.39384903E-01 -3.25077495E-01
 -2.29848308E-01  1.09537935E+00  1.00000000E+00  6.26791663E-02  3.33536566E-01
  7.41239642E-01  1.00000000E+00  1.00000000E+00  7.09645947E-04  5.46727229E-03
  2.78231186E-02  1.04747740E-01  2.82920846E-01  4.48495239E-01  2.70816885E-01
  1.54502916E-02 -3.14443412E-04 -2.48213768E-03 -1.23163554E-02 -5.05389173E-02
 -1.39384903E-01 -3.25077495E-01 -2.29848308E-01  1.09537935E+00  1.00000000E+00
  6.26791663E-02  3.33536566E-01  7.41239642E-01  1.00000000E+00  1.00000000E+00
  6.99617413E-04  5.38605463E-03  2.73910212E-02  1.03150592E-01  2.78570663E-01
  4.48294849E-01  2.78085928E-01  1.54315612E-02 -3.04990096E-04 -2.40802638E-03
 -1.19444487E-02 -4.89259929E-02 -1.34472725E-01 -3.15112578E-01 -2.42857833E-01
  1.09438221E+00  1.00000000E+00  5.89056768E-02  3.20461107E-01  7.53042062E-01
  1.00000000E+00  1.00000000E+00  6.99617413E-04  5.38605463E-03  2.73910212E-02
  1.03150592E-01  2.78570663E-01  4.48294849E-01  2.78085928E-01  1.54315612E-02
 -3.04990096E-04 -2.40802638E-03 -1.19444487E-02 -4.89259929E-02 -1.34472725E-01
 -3.15112578E-01 -2.42857833E-01  1.09438221E+00  1.00000000E+00  5.89056768E-02
  3.20461107E-01  7.53042062E-01  1.00000000E+00  1.00000000E+00  3.34987264E-02
  2.34800801E-01  8.13682958E-01  1.00000000E+00  1.00000000E+00  3.34987264E-02
  2.34800801E-01  8.13682958E-01  1.00000000E+00  1.00000000E+00  3.34987264E-02
  2.34800801E-01  8.13682958E-01  1.00000000E+00  1.00000000E+00  3.34987264E-02
  2.34800801E-01  8.13682958E-01  1.00000000E+00  1.00000000E+00  3.34987264E-02
  2.34800801E-01  8.13682958E-01  1.00000000E+00  1.00000000E+00  3.34987264E-02
  2.34800801E-01  8.13682958E-01  1.00000000E+00  1.00000000E+00
Coordinates of each shell                  R   N=         174
  0.00000000E+00  2.64561657E+00  0.00000000E+00  0.00000000E+00  2.64561657E+00
  0.00000000E+00  0.00000000E+00  2.64561657E+00  0.00000000E+00  0.00000000E+00
  2.64561657E+00  0.00000000E+00  0.00000000E+00  2.64561657E+00  0.00000000E+00
  0.00000000E+00  2.64561657E+00  0.00000000E+00  0.00000000E+00  2.64561657E+00
  0.00000000E+00  0.00000000E+00  2.64561657E+00  0.00000000E+00  0.00000000E+00
 -2.64561657E+00  0.00000000E+00  0.00000000E+00 -2.64561657E+00  0.00000000E+00
  0.00000000E+00 -2.64561657E+00  0.00000000E+00  0.00000000E+00 -2.64561657E+00
  0.00000000E+00  0.00000000E+00 -2.64561657E+00  0.00000000E+00  0.00000000E+00
 -2.64561657E+00  0.00000000E+00  0.00000000E+00 -2.64561657E+00  0.00000000E+00
  0.00000000E+00 -2.64561657E+00  0.00000000E+00  0.00000000E+00  0.00000000E+00
  2.17318504E+00  0.00000000E+00  0.00000000E+00  2.17318504E+00  0.00000000E+00
  0.00000000E+00  2.17318504E+00  0.00000000E+00  0.00000000E+00  2.17318504E+00
  0.00000000E+00  0.00000000E+00  2.17318504E+00  0.00000000E+00  0.00000000E+00
  2.17318504E+00  0.00000000E+00  0.00000000E+00 -2.17318504E+00  0.00000000E+00
  0.00000000E+00 -2.17318504E+00  0.00000000E+00  0.00000000E+00 -2.17318504E+00
  0.00000000E+00  0.00000000E+00 -2.17318504E+00  0.00000000E+00  0.00000000E+00
 -2.17318504E+00  0.00000000E+00  0.00000000E+00 -2.17318504E+00  0.00000000E+00
  6.42506882E+00  0.00000000E+00  0.00000000E+00  6.42506882E+00  0.00000000E+00
  0.00000000E+00  6.42506882E+00  0.00000000E+00  0.00000000E+00  6.42506882E+00
  0.00000000E+00  0.00000000E+00  6.42506882E+00  0.00000000E+00  0.00000000E+00
  6.42506882E+00  0.00000000E+00  0.00000000E+00 -6.42506882E+00  0.00000000E+00
  0.00000000E+00 -6.42506882E+00  0.00000000E+00  0.00000000E+00 -6.42506882E+00
  0.00000000E+00  0.00000000E+00 -6.42506882E+00  0.00000000E+00  0.00000000E+00
 -6.42506882E+00  0.00000000E+00  0.00000000E+00 -6.42506882E+00  0.00000000E+00
 -1.77576241E+00  7.07139295E+00  0.00000000E+00 -1.77576241E+00  7.07139295E+00
  0.00000000E+00 -1.77576241E+00  7.07139295E+00  0.00000000E+00  1.77576241E+00
 -7.07139295E+00  0.00000000E+00  1.77576241E+00 -7.07139295E+00  0.00000000E+00
  1.77576241E+00 -7.07139295E+00  0.00000000E+00  8.87880261E-01  7.07139295E+00
  1.53785534E+00  8.87880261E-01  7.07139295E+00  1.53785534E+00  8.87880261E-01
  7.07139295E+00  1.53785534E+00 -8.87880261E-01 -7.07139295E+00 -1.53785534E+00
 -8.87880261E-01 -7.07139295E+00 -1.53785534E+00 -8.87880261E-01 -7.07139295E+00
 -1.53785534E+00  8.87880261E-01  7.07139295E+00 -1.53785534E+00  8.87880261E-01
  7.07139295E+00 -1.53785534E+00  8.87880261E-01  7.07139295E+00 -1.53785534E+00
 -8.87880261E-01 -7.07139295E+00  1.53785534E+00 -8.87880261E-01 -7.07139295E+00
  1.53785534E+00 -8.87880261E-01 -7.07139295E+00  1.53785534E+00
Num ILSW                                   I              100
ILSW                                       I   N=         100
           1           0           0           0           2           1
           0           0           0           0           0          -1
           5           0           0           0           0           0
           0           0           0           0           0           0
           1           1           0           0           0           0
           0           0      100000           0          -1           0
           0           0           0           0           0           0
           0           0           0           1           0           0
           0 -2000000000           1           0           0           0
           0           0           4          52           0           0
           0           0           0           0           0           0
           0           0           0          12           0           1
           0           0           0           0           0           0
           0           0           0           0           0           0
           0           0           0           0           0           0
           0           0           0           0           0           0
           0           0           0           0
Num RLSW                                   I               52
RLSW                                       R   N=          52
  1.00000000E+00  1.00000000E+00  1.00000000E+00  1.00000000E+00  1.00000000E+00
  0.00000000E+00  0.00000000E+00  1.00000000E+00  0.00000000E+00  0.00000000E+00
  0.00000000E+00  0.00000000E+00  1.00000000E+00  0.00000000E+00  0.00000000E+00
  0.00000000E+00  0.00000000E+00  1.00000000E+00  0.00000000E+00  0.00000000E+00
  0.00000000E+00  0.00000000E+00  1.00000000E+00  0.00000000E+00  0.00000000E+00
  0.00000000E+00  0.00000000E+00  1.00000000E+00  0.00000000E+00  0.00000000E+00
  0.00000000E+00  0.00000000E+00  1.00000000E+00  0.00000000E+00  0.00000000E+00
  0.00000000E+00  0.00000000E+00  0.00000000E+00  1.00000000E+00  1.00000000E+00
  0.00000000E+00  1.00000000E+00  0.00000000E+00  0.00000000E+00  0.00000000E+00
  0.00000000E+00  0.00000000E+00  0.00000000E+00  0.00000000E+00  0.00000000E+00
  0.00000000E+00  0.00000000E+00
ECP-MxAtEC                                 I           250000
ECP-MaxLECP                                I               10
ECP-MaxAtL                                 I          2250000
ECP-MxTECP                                 I         11250000
ECP-LenNCZ                                 I               11
ECP-KFirst                                 I   N=         120
           1           1           0           0           0           0
           0           0           0           0           0           0
           4           4           0           0           0           0
           0           0           0           0           0           0
           8           8           0           0           0           0
           0           0           0           0           0           0
           0           0           0           0           0           0
           0           0           0           0           0           0
           0           0           0           0           0           0
           0           0           0           0           0           0
           0           0           0           0           0           0
           0           0           0           0           0           0
           0           0           0           0           0           0
           0           0           0           0           0           0
           0           0           0           0           0           0
           0           0           0           0           0           0
           0           0           0           0           0           0
           0           0           0           0           0           0
           0           0           0           0           0           0
           0           0           0           0           0           0
ECP-KLast                                  I   N=         120
           3           3           0           0           0           0
           0           0           0           0           0           0
           7           7           0           0           0           0
           0           0           0           0           0           0
          11          11           0           0           0           0
           0           0           0           0           0           0
           0           0           0           0           0           0
           0           0           0           0           0           0
           0           0           0           0           0           0
           0           0           0           0           0           0
           0           0           0           0           0           0
           0           0           0           0           0           0
           0           0           0           0           0           0
           0           0           0           0           0           0
           0           0           0           0           0           0
           0           0           0           0           0           0
           0           0           0           0           0           0
           0           0           0           0           0           0
           0           0           0           0           0           0
           0           0           0           0           0           0
ECP-LMax                                   I   N=          12
           2           2           0           0           0           0
           0           0           0           0           0           0
ECP-LPSkip                                 I   N=          12
           0           0           1           1           1           1
           1           1           1           1           1           1
ECP-RNFroz                                 R   N=          12
  1.00000000E+01  1.00000000E+01  0.00000000E+00  0.00000000E+00  0.00000000E+00
  0.00000000E+00  0.00000000E+00  0.00000000E+00  0.00000000E+00  0.00000000E+00
  0.00000000E+00  0.00000000E+00
ECP-NLP                                    I   N=          11
           1           2           2           0           1           2
           2           0           1           2           2
ECP-CLP1                                   R   N=          11
 -1.00000000E+01 -7.25548282E+01 -1.27450231E+01  3.00000000E+00  2.38351825E+01
  4.73893049E+02  1.57634582E+02  5.00000000E+00  6.49909360E+00  3.51460539E+02
  8.55016036E+01
ECP-CLP2                                   R   N=          11
  0.00000000E+00  0.00000000E+00  0.00000000E+00  0.00000000E+00  0.00000000E+00
  0.00000000E+00  0.00000000E+00  0.00000000E+00  0.00000000E+00  0.00000000E+00
  0.00000000E+00
ECP-ZLP                                    R   N=          11
  5.11995176E+02  9.32801074E+01  2.32206669E+01  1.73118085E+02  1.85241989E+02
  7.31517847E+01  1.46884157E+01  1.00719137E+02  1.30834566E+02  5.38683720E+01
  1.40989469E+01
MxBond                                     I                4
NBond                                      I   N=          12
           4           4           2           2           4           4
           1           1           1           1           1           1
IBond                                      I   N=          48
           2           3           4           5           1           3
           4           6           1           2           0           0
           1           2           0           0           1           7
           9          11           2           8          10          12
           5           0           0           0           6           0
           0           0           5           0           0           0
           6           0           0           0           5           0
           0           0           6           0           0           0
RBond                                      R   N=          48
  1.00000000E+00  1.00000000E+00  1.00000000E+00  1.00000000E+00  1.00000000E+00
  1.00000000E+00  1.00000000E+00  1.00000000E+00  1.00000000E+00  1.00000000E+00
  0.00000000E+00  0.00000000E+00  1.00000000E+00  1.00000000E+00  0.00000000E+00
  0.00000000E+00  1.00000000E+00  1.00000000E+00  1.00000000E+00  1.00000000E+00
  1.00000000E+00  1.00000000E+00  1.00000000E+00  1.00000000E+00  1.00000000E+00
  0.00000000E+00  0.00000000E+00  0.00000000E+00  1.00000000E+00  0.00000000E+00
  0.00000000E+00  0.00000000E+00  1.00000000E+00  0.00000000E+00  0.00000000E+00
  0.00000000E+00  1.00000000E+00  0.00000000E+00  0.00000000E+00  0.00000000E+00
  1.00000000E+00  0.00000000E+00  0.00000000E+00  0.00000000E+00  1.00000000E+00
  0.00000000E+00  0.00000000E+00  0.00000000E+00
Virial Ratio                               R      2.259979926576563E+00
SCF Energy                                 R     -6.515842068004920E+02
Total Energy                               R     -6.515842068004920E+02
S**2                                       R      1.964176070240427E+00
S**2 after annihilation                    R      4.054455384623099E+00
RMS Density                                R      6.524152958400360E-09
Job Status                                 I                1
Nuclear derivative order                   I                0
External E-field                           R   N=          35
  0.00000000E+00  0.00000000E+00  0.00000000E+00  0.00000000E+00  0.00000000E+00
  0.00000000E+00  0.00000000E+00  0.00000000E+00  0.00000000E+00  0.00000000E+00
  0.00000000E+00  0.00000000E+00  0.00000000E+00  0.00000000E+00  0.00000000E+00
  0.00000000E+00  0.00000000E+00  0.00000000E+00  0.00000000E+00  0.00000000E+00
  0.00000000E+00  0.00000000E+00  0.00000000E+00  0.00000000E+00  0.00000000E+00
  0.00000000E+00  0.00000000E+00  0.00000000E+00  0.00000000E+00  0.00000000E+00
  0.00000000E+00  0.00000000E+00  0.00000000E+00  0.00000000E+00  0.00000000E+00
IOpCl                                      I                1
IROHF                                      I                0
Alpha Orbital Energies                     R   N=         130
 -2.09396302E+01 -2.09191863E+01 -1.59405568E+01 -1.59405558E+01 -5.74483304E+00
 -5.74480641E+00 -4.11286982E+00 -4.11259102E+00 -4.11103252E+00 -4.11093631E+00
 -4.02559312E+00 -4.02556658E+00 -1.58893220E+00 -1.54273697E+00 -1.54203511E+00
 -1.53966732E+00 -1.25449293E+00 -1.20862074E+00 -1.18828687E+00 -1.17969401E+00
 -1.15722235E+00 -1.14661558E+00 -1.14449295E+00 -1.14240559E+00 -1.14045237E+00
 -1.12721857E+00 -1.02188303E+00 -1.02030609E+00 -1.01894176E+00 -1.01831783E+00
 -9.35168415E-01 -8.72924061E-01 -8.60079579E-01 -8.57336228E-01 -8.50316923E-01
 -8.36861146E-01 -2.95081468E-01 -2.56689603E-01 -2.26670901E-01 -2.09887847E-01
 -1.86583067E-01 -1.71596720E-01 -1.63816143E-01 -1.54373911E-01 -1.54195721E-01
 -1.13419807E-01 -1.07187804E-01 -7.37206018E-02 -7.33929006E-02 -4.59984989E-02
 -1.85677965E-02 -1.69784010E-02 -4.53445518E-03  6.90799157E-03  1.07758924E-02
  2.60650361E-02  8.58247472E-02  1.98882924E-01  2.64097704E-01  3.67462422E-01
  3.94810810E-01  4.06787955E-01  4.35277928E-01  5.00151334E-01  5.64983188E-01
  5.75553009E-01  5.86357456E-01  5.99721905E-01  6.00412352E-01  6.28280673E-01
  6.59797106E-01  6.72615826E-01  6.96921716E-01  7.27371824E-01  7.69169870E-01
  7.71400515E-01  7.82622361E-01  8.10488526E-01  8.74316483E-01  8.82288034E-01
  8.94412295E-01  9.96929454E-01  1.00327643E+00  1.03252812E+00  1.05151378E+00
  1.06960381E+00  1.09703233E+00  1.10093767E+00  1.13731053E+00  1.22274631E+00
  1.22873985E+00  1.40090954E+00  1.40091017E+00  1.43617292E+00  1.49386861E+00
  1.57134723E+00  1.57613565E+00  1.63034547E+00  1.69258092E+00  1.70637157E+00
  1.73545730E+00  1.79922934E+00  1.96856028E+00  1.97591350E+00  1.97969896E+00
  1.98261175E+00  2.13615210E+00  2.18154959E+00  2.37219015E+00  2.45547746E+00
  2.45559691E+00  2.45950465E+00  2.46532544E+00  2.53406077E+00  2.64314659E+00
  2.66508204E+00  2.67260464E+00  2.68991250E+00  2.69009068E+00  2.69892130E+00
  2.70036906E+00  2.75071717E+00  2.76207755E+00  2.76317666E+00  2.95152384E+00
  2.95337861E+00  2.95694613E+00  2.96358252E+00  3.67196886E+00  3.89918364E+00
Beta Orbital Energies                      R   N=         130
 -2.09782129E+01 -2.09553057E+01 -1.59408160E+01 -1.59408150E+01 -5.63550418E+00
 -5.63545759E+00 -3.99634251E+00 -3.99630740E+00 -3.93151064E+00 -3.93096247E+00
 -3.92921448E+00 -3.92913485E+00 -1.73647258E+00 -1.68105089E+00 -1.54254000E+00
 -1.54239394E+00 -1.18637829E+00 -1.15647766E+00 -1.12977159E+00 -1.10995257E+00
 -1.10328347E+00 -1.09946159E+00 -1.09787632E+00 -1.08352622E+00 -1.02218984E+00
 -1.02204370E+00 -1.02124877E+00 -1.01625616E+00 -9.96013777E-01 -9.82439788E-01
 -9.59149563E-01 -9.37524297E-01 -9.06616299E-01 -8.80206013E-01 -8.68822648E-01
 -8.57742893E-01 -2.37451251E-01 -2.14374244E-01 -2.09152270E-01 -2.08655278E-01
 -1.92404776E-01 -1.86855646E-01 -1.62126178E-01 -1.55621461E-01 -1.40018345E-01
 -1.13521567E-01 -1.07643254E-01 -1.06013405E-01 -5.12151010E-02 -1.86404352E-02
 -1.70696070E-02 -4.66346946E-03  1.49237497E-04  6.85130755E-03  1.59655840E-02
  1.91906535E-02  7.40203399E-02  2.00696201E-01  2.49524637E-01  3.59850248E-01
  4.05026507E-01  4.07652944E-01  4.39844735E-01  4.98866755E-01  5.69715178E-01
  5.76028682E-01  5.83113896E-01  5.88034474E-01  5.89115419E-01  6.07169129E-01
  6.61592068E-01  6.96503221E-01  6.97019772E-01  7.31508200E-01  7.67096516E-01