[No Title]                                                              
Stability RHF                                                         Gen                 
Number of atoms                            I               10
Info1-9                                    I   N=           9
         102         101           0           0           0         110
           7           1           2
Full Title                                 C   N=           1
[No Title]  
Route                                      C   N=           4
#p RHF/gen nosymm int=nobasistransform stable   
Charge                                     I                0
Multiplicity                               I                1
Number of electrons                        I               32
Number of alpha electrons                  I               16
Number of beta electrons                   I               16
Number of basis functions                  I              204
Number of independent functions            I              204
Number of point charges in /Mol/           I                0
Number of translation vectors              I                0
Atomic numbers                             I   N=          10
           6           6           8           6           1           1
           1           1           1           1
Nuclear charges                            R   N=          10
  6.00000000E+00  6.00000000E+00  8.00000000E+00  6.00000000E+00  1.00000000E+00
  1.00000000E+00  1.00000000E+00  1.00000000E+00  1.00000000E+00  1.00000000E+00
Current cartesian coordinates              R   N=          30
  0.00000000E+00  2.42001162E+00 -1.15290301E+00  0.00000000E+00  0.00000000E+00
  3.46615455E-01  0.00000000E+00  0.00000000E+00  2.63065183E+00  0.00000000E+00
 -2.42001162E+00 -1.15290301E+00  2.10986032E-01  4.03564809E+00  9.66972858E-02
  1.51585893E+00  2.39235359E+00 -2.55018541E+00 -1.77699451E+00  2.57141648E+00
 -2.19154562E+00 -1.51585893E+00 -2.39235359E+00 -2.55018541E+00  1.77699451E+00
 -2.57141648E+00 -2.19154562E+00 -2.10986032E-01 -4.03564809E+00  9.66972858E-02
Number of symbols in /Mol/                 I                0
Force Field                                I                0
Atom Types                                 C   N=          10
                                                            
                                                            
Int Atom Types                             I   N=          10
           0           0           0           0           0           0
           0           0           0           0
MM charges                                 R   N=          10
  0.00000000E+00  0.00000000E+00  0.00000000E+00  0.00000000E+00  0.00000000E+00
  0.00000000E+00  0.00000000E+00  0.00000000E+00  0.00000000E+00  0.00000000E+00
Integer atomic weights                     I   N=          10
          12          12          16          12           1           1
           1           1           1           1
Real atomic weights                        R   N=          10
  1.20000000E+01  1.20000000E+01  1.59949146E+01  1.20000000E+01  1.00782504E+00
  1.00782504E+00  1.00782504E+00  1.00782504E+00  1.00782504E+00  1.00782504E+00
Atom fragment info                         I   N=          10
           0           0           0           0           0           0
           0           0           0           0
Atom residue num                           I   N=          10
           0           0           0           0           0           0
           0           0           0           0
Nuclear spins                              I   N=          10
           0           0           0           0           1           1
           1           1           1           1
Nuclear ZEff                               R   N=          10
 -3.60000000E+00 -3.60000000E+00 -5.60000000E+00 -3.60000000E+00 -1.00000000E+00
 -1.00000000E+00 -1.00000000E+00 -1.00000000E+00 -1.00000000E+00 -1.00000000E+00
Nuclear ZNuc                               R   N=          10
  6.00000000E+00  6.00000000E+00  8.00000000E+00  6.00000000E+00  1.00000000E+00
  1.00000000E+00  1.00000000E+00  1.00000000E+00  1.00000000E+00  1.00000000E+00
Nuclear QMom                               R   N=          10
  0.00000000E+00  0.00000000E+00  0.00000000E+00  0.00000000E+00  0.00000000E+00
  0.00000000E+00  0.00000000E+00  0.00000000E+00  0.00000000E+00  0.00000000E+00
Nuclear GFac                               R   N=          10
  0.00000000E+00  0.00000000E+00  0.00000000E+00  0.00000000E+00  2.79284600E+00
  2.79284600E+00  2.79284600E+00  2.79284600E+00  2.79284600E+00  2.79284600E+00
MicOpt                                     I   N=          10
          -1          -1          -1          -1          -1          -1
          -1          -1          -1          -1
Number of residues                         I                0
Number of secondary structures             I                0
Number of contracted shells                I               76
Number of primitive shells                 I              134
Pure/Cartesian d shells                    I                0
Pure/Cartesian f shells                    I                0
Highest angular momentum                   I                3
Largest degree of contraction              I                7
Shell types                                I   N=          76
           0           0           0           0           1           1
           1          -2          -2          -3           0           0
           0           0           1           1           1          -2
          -2          -3           0           0           0           0
           1           1           1          -2          -2          -3
           0           0           0           0           1           1
           1          -2          -2          -3           0           0
           0           1           1          -2           0           0
           0           1           1          -2           0           0
           0           1           1          -2           0           0
           0           1           1          -2           0           0
           0           1           1          -2           0           0
           0           1           1          -2
Number of primitives per shell             I   N=          76
           7           2           1           1           4           1
           1           1           1           1           7           2
           1           1           4           1           1           1
           1           1           7           2           1           1
           4           1           1           1           1           1
           7           2           1           1           4           1
           1           1           1           1           4           1
           1           1           1           1           4           1
           1           1           1           1           4           1
           1           1           1           1           4           1
           1           1           1           1           4           1
           1           1           1           1           4           1
           1           1           1           1
Shell to atom map                          I   N=          76
           1           1           1           1           1           1
           1           1           1           1           2           2
           2           2           2           2           2           2
           2           2           3           3           3           3
           3           3           3           3           3           3
           4           4           4           4           4           4
           4           4           4           4           5           5
           5           5           5           5           6           6
           6           6           6           6           7           7
           7           7           7           7           8           8
           8           8           8           8           9           9
           9           9           9           9          10          10
          10          10          10          10
Primitive exponents                        R   N=         134
  7.31999000E+03  1.09818000E+03  2.50014000E+02  7.07586000E+01  2.28595000E+01
  8.03936000E+00  2.89309000E+00  5.21640000E+00  5.56124000E-01  2.28813000E-01
  9.36338000E-02  3.39855000E+01  7.72957000E+00  2.24954000E+00  7.67681000E-01
  2.63283000E-01  8.48744000E-02  1.40000000E+00  4.50000000E-01  9.50000000E-01
  7.31999000E+03  1.09818000E+03  2.50014000E+02  7.07586000E+01  2.28595000E+01
  8.03936000E+00  2.89309000E+00  5.21640000E+00  5.56124000E-01  2.28813000E-01
  9.36338000E-02  3.39855000E+01  7.72957000E+00  2.24954000E+00  7.67681000E-01
  2.63283000E-01  8.48744000E-02  1.40000000E+00  4.50000000E-01  9.50000000E-01
  1.35887000E+04  2.03847000E+03  4.64041000E+02  1.31339000E+02  4.25340000E+01
  1.50429000E+01  5.46616000E+00  1.00915000E+01  1.10429000E+00  4.48082000E-01
  1.75325000E-01  6.08220000E+01  1.40332000E+01  4.18244000E+00  1.42490000E+00
  4.78741000E-01  1.46257000E-01  2.20000000E+00  6.50000000E-01  1.10000000E+00
  7.31999000E+03  1.09818000E+03  2.50014000E+02  7.07586000E+01  2.28595000E+01
  8.03936000E+00  2.89309000E+00  5.21640000E+00  5.56124000E-01  2.28813000E-01
  9.36338000E-02  3.39855000E+01  7.72957000E+00  2.24954000E+00  7.67681000E-01
  2.63283000E-01  8.48744000E-02  1.40000000E+00  4.50000000E-01  9.50000000E-01
  7.54732000E+01  1.13575000E+01  2.60081000E+00  7.35503000E-01  2.31761000E-01
  7.41675000E-02  1.60000000E+00  4.50000000E-01  1.25000000E+00  7.54732000E+01
  1.13575000E+01  2.60081000E+00  7.35503000E-01  2.31761000E-01  7.41675000E-02
  1.60000000E+00  4.50000000E-01  1.25000000E+00  7.54732000E+01  1.13575000E+01
  2.60081000E+00  7.35503000E-01  2.31761000E-01  7.41675000E-02  1.60000000E+00
  4.50000000E-01  1.25000000E+00  7.54732000E+01  1.13575000E+01  2.60081000E+00
  7.35503000E-01  2.31761000E-01  7.41675000E-02  1.60000000E+00  4.50000000E-01
  1.25000000E+00  7.54732000E+01  1.13575000E+01  2.60081000E+00  7.35503000E-01
  2.31761000E-01  7.41675000E-02  1.60000000E+00  4.50000000E-01  1.25000000E+00
  7.54732000E+01  1.13575000E+01  2.60081000E+00  7.35503000E-01  2.31761000E-01
  7.41675000E-02  1.60000000E+00  4.50000000E-01  1.25000000E+00
Contraction coefficients                   R   N=         134
  6.19440214E-04  4.78486786E-03  2.44735224E-02  9.36043148E-02  2.59458497E-01
  4.45403961E-01  3.22672009E-01 -2.06212757E-01  1.07644228E+00  1.00000000E+00
  1.00000000E+00  1.16512749E-02  8.35584027E-02  3.16787343E-01  7.11836880E-01
  1.00000000E+00  1.00000000E+00  1.00000000E+00  1.00000000E+00  1.00000000E+00
  6.19440214E-04  4.78486786E-03  2.44735224E-02  9.36043148E-02  2.59458497E-01
  4.45403961E-01  3.22672009E-01 -2.06212757E-01  1.07644228E+00  1.00000000E+00
  1.00000000E+00  1.16512749E-02  8.35584027E-02  3.16787343E-01  7.11836880E-01
  1.00000000E+00  1.00000000E+00  1.00000000E+00  1.00000000E+00  1.00000000E+00
  5.93260945E-04  4.58409462E-03  2.34875322E-02  9.04834107E-02  2.54848532E-01
  4.45731087E-01  3.28246179E-01 -2.16387439E-01  1.08102913E+00  1.00000000E+00
  1.00000000E+00  1.25718463E-02  8.94010692E-02  3.34281970E-01  6.92089444E-01
  1.00000000E+00  1.00000000E+00  1.00000000E+00  1.00000000E+00  1.00000000E+00
  6.19440214E-04  4.78486786E-03  2.44735224E-02  9.36043148E-02  2.59458497E-01
  4.45403961E-01  3.22672009E-01 -2.06212757E-01  1.07644228E+00  1.00000000E+00
  1.00000000E+00  1.16512749E-02  8.35584027E-02  3.16787343E-01  7.11836880E-01
  1.00000000E+00  1.00000000E+00  1.00000000E+00  1.00000000E+00  1.00000000E+00
  6.63367366E-03  5.09629679E-02  2.47437217E-01  7.75286119E-01  1.00000000E+00
  1.00000000E+00  1.00000000E+00  1.00000000E+00  1.00000000E+00  6.63367366E-03
  5.09629679E-02  2.47437217E-01  7.75286119E-01  1.00000000E+00  1.00000000E+00
  1.00000000E+00  1.00000000E+00  1.00000000E+00  6.63367366E-03  5.09629679E-02
  2.47437217E-01  7.75286119E-01  1.00000000E+00  1.00000000E+00  1.00000000E+00
  1.00000000E+00  1.00000000E+00  6.63367366E-03  5.09629679E-02  2.47437217E-01
  7.75286119E-01  1.00000000E+00  1.00000000E+00  1.00000000E+00  1.00000000E+00
  1.00000000E+00  6.63367366E-03  5.09629679E-02  2.47437217E-01  7.75286119E-01
  1.00000000E+00  1.00000000E+00  1.00000000E+00  1.00000000E+00  1.00000000E+00
  6.63367366E-03  5.09629679E-02  2.47437217E-01  7.75286119E-01  1.00000000E+00
  1.00000000E+00  1.00000000E+00  1.00000000E+00  1.00000000E+00
Coordinates of each shell                  R   N=         228
  0.00000000E+00  2.42001162E+00 -1.15290301E+00  0.00000000E+00  2.42001162E+00
 -1.15290301E+00  0.00000000E+00  2.42001162E+00 -1.15290301E+00  0.00000000E+00
  2.42001162E+00 -1.15290301E+00  0.00000000E+00  2.42001162E+00 -1.15290301E+00
  0.00000000E+00  2.42001162E+00 -1.15290301E+00  0.00000000E+00  2.42001162E+00
 -1.15290301E+00  0.00000000E+00  2.42001162E+00 -1.15290301E+00  0.00000000E+00
  2.42001162E+00 -1.15290301E+00  0.00000000E+00  2.42001162E+00 -1.15290301E+00
  0.00000000E+00  0.00000000E+00  3.46615455E-01  0.00000000E+00  0.00000000E+00
  3.46615455E-01  0.00000000E+00  0.00000000E+00  3.46615455E-01  0.00000000E+00
  0.00000000E+00  3.46615455E-01  0.00000000E+00  0.00000000E+00  3.46615455E-01
  0.00000000E+00  0.00000000E+00  3.46615455E-01  0.00000000E+00  0.00000000E+00
  3.46615455E-01  0.00000000E+00  0.00000000E+00  3.46615455E-01  0.00000000E+00
  0.00000000E+00  3.46615455E-01  0.00000000E+00  0.00000000E+00  3.46615455E-01
  0.00000000E+00  0.00000000E+00  2.63065183E+00  0.00000000E+00  0.00000000E+00
  2.63065183E+00  0.00000000E+00  0.00000000E+00  2.63065183E+00  0.00000000E+00
  0.00000000E+00  2.63065183E+00  0.00000000E+00  0.00000000E+00  2.63065183E+00
  0.00000000E+00  0.00000000E+00  2.63065183E+00  0.00000000E+00  0.00000000E+00
  2.63065183E+00  0.00000000E+00  0.00000000E+00  2.63065183E+00  0.00000000E+00
  0.00000000E+00  2.63065183E+00  0.00000000E+00  0.00000000E+00  2.63065183E+00
  0.00000000E+00 -2.42001162E+00 -1.15290301E+00  0.00000000E+00 -2.42001162E+00
 -1.15290301E+00  0.00000000E+00 -2.42001162E+00 -1.15290301E+00  0.00000000E+00
 -2.42001162E+00 -1.15290301E+00  0.00000000E+00 -2.42001162E+00 -1.15290301E+00
  0.00000000E+00 -2.42001162E+00 -1.15290301E+00  0.00000000E+00 -2.42001162E+00
 -1.15290301E+00  0.00000000E+00 -2.42001162E+00 -1.15290301E+00  0.00000000E+00
 -2.42001162E+00 -1.15290301E+00  0.00000000E+00 -2.42001162E+00 -1.15290301E+00
  2.10986032E-01  4.03564809E+00  9.66972858E-02  2.10986032E-01  4.03564809E+00
  9.66972858E-02  2.10986032E-01  4.03564809E+00  9.66972858E-02  2.10986032E-01
  4.03564809E+00  9.66972858E-02  2.10986032E-01  4.03564809E+00  9.66972858E-02
  2.10986032E-01  4.03564809E+00  9.66972858E-02  1.51585893E+00  2.39235359E+00
 -2.55018541E+00  1.51585893E+00  2.39235359E+00 -2.55018541E+00  1.51585893E+00
  2.39235359E+00 -2.55018541E+00  1.51585893E+00  2.39235359E+00 -2.55018541E+00
  1.51585893E+00  2.39235359E+00 -2.55018541E+00  1.51585893E+00  2.39235359E+00
 -2.55018541E+00 -1.77699451E+00  2.57141648E+00 -2.19154562E+00 -1.77699451E+00
  2.57141648E+00 -2.19154562E+00 -1.77699451E+00  2.57141648E+00 -2.19154562E+00
 -1.77699451E+00  2.57141648E+00 -2.19154562E+00 -1.77699451E+00  2.57141648E+00
 -2.19154562E+00 -1.77699451E+00  2.57141648E+00 -2.19154562E+00 -1.51585893E+00
 -2.39235359E+00 -2.55018541E+00 -1.51585893E+00 -2.39235359E+00 -2.55018541E+00
 -1.51585893E+00 -2.39235359E+00 -2.55018541E+00 -1.51585893E+00 -2.39235359E+00
 -2.55018541E+00 -1.51585893E+00 -2.39235359E+00 -2.55018541E+00 -1.51585893E+00
 -2.39235359E+00 -2.55018541E+00  1.77699451E+00 -2.57141648E+00 -2.19154562E+00
  1.77699451E+00 -2.57141648E+00 -2.19154562E+00  1.77699451E+00 -2.57141648E+00
 -2.19154562E+00  1.77699451E+00 -2.57141648E+00 -2.19154562E+00  1.77699451E+00
 -2.57141648E+00 -2.19154562E+00  1.77699451E+00 -2.57141648E+00 -2.19154562E+00
 -2.10986032E-01 -4.03564809E+00  9.66972858E-02 -2.10986032E-01 -4.03564809E+00
  9.66972858E-02 -2.10986032E-01 -4.03564809E+00  9.66972858E-02 -2.10986032E-01
 -4.03564809E+00  9.66972858E-02 -2.10986032E-01 -4.03564809E+00  9.66972858E-02
 -2.10986032E-01 -4.03564809E+00  9.66972858E-02
Num ILSW                                   I              100
ILSW                                       I   N=         100
           0           0           0           0           2           1
           0           0           0           0           0          -1
           5           0           0           0           0           0
           0           0           0           0           0           0
           1           1           0           0           0           0
           0           0      100000           0          -1           0
           0           0           0           0           0           0
           0           0           0           1           0           0
           0 -2000000000           1           0           0           0
           0           0           4          52           0           0
           0           0           0           0           0           0
           0           0           0          10           0           1
           0           0           0           0           0           0
           0           0           0           0           0           0
           0           0           0           0           0           0
           0           0           0           0           0           0
           0           0           0           0
Num RLSW                                   I               52
RLSW                                       R   N=          52
  1.00000000E+00  1.00000000E+00  1.00000000E+00  1.00000000E+00  1.00000000E+00
  0.00000000E+00  0.00000000E+00  1.00000000E+00  0.00000000E+00  0.00000000E+00
  0.00000000E+00  0.00000000E+00  1.00000000E+00  0.00000000E+00  0.00000000E+00
  0.00000000E+00  0.00000000E+00  1.00000000E+00  0.00000000E+00  0.00000000E+00
  0.00000000E+00  0.00000000E+00  1.00000000E+00  0.00000000E+00  0.00000000E+00
  0.00000000E+00  0.00000000E+00  1.00000000E+00  0.00000000E+00  0.00000000E+00
  0.00000000E+00  0.00000000E+00  1.00000000E+00  0.00000000E+00  0.00000000E+00
  0.00000000E+00  0.00000000E+00  0.00000000E+00  1.00000000E+00  1.00000000E+00
  0.00000000E+00  1.00000000E+00  0.00000000E+00  0.00000000E+00  0.00000000E+00
  0.00000000E+00  0.00000000E+00  0.00000000E+00  0.00000000E+00  0.00000000E+00
  0.00000000E+00  0.00000000E+00
MxBond                                     I                4
NBond                                      I   N=          10
           4           3           1           4           1           1
           1           1           1           1
IBond                                      I   N=          40
           2           5           6           7           1           3
           4           0           2           0           0           0
           2           8           9          10           1           0
           0           0           1           0           0           0
           1           0           0           0           4           0
           0           0           4           0           0           0
           4           0           0           0
RBond                                      R   N=          40
  1.00000000E+00  1.00000000E+00  1.00000000E+00  1.00000000E+00  1.00000000E+00
  2.00000000E+00  1.00000000E+00  0.00000000E+00  2.00000000E+00  0.00000000E+00
  0.00000000E+00  0.00000000E+00  1.00000000E+00  1.00000000E+00  1.00000000E+00
  1.00000000E+00  1.00000000E+00  0.00000000E+00  0.00000000E+00  0.00000000E+00
  1.00000000E+00  0.00000000E+00  0.00000000E+00  0.00000000E+00  1.00000000E+00
  0.00000000E+00  0.00000000E+00  0.00000000E+00  1.00000000E+00  0.00000000E+00
  0.00000000E+00  0.00000000E+00  1.00000000E+00  0.00000000E+00  0.00000000E+00
  0.00000000E+00  1.00000000E+00  0.00000000E+00  0.00000000E+00  0.00000000E+00
Virial Ratio                               R      1.998969372223351E+00
SCF Energy                                 R     -1.920303386240473E+02
Total Energy                               R     -1.920303386240473E+02
RMS Density                                R      4.956591698957770E-09
Job Status                                 I                1
Nuclear derivative order                   I                0
External E-field                           R   N=          35
  0.00000000E+00  0.00000000E+00  0.00000000E+00  0.00000000E+00  0.00000000E+00
  0.00000000E+00  0.00000000E+00  0.00000000E+00  0.00000000E+00  0.00000000E+00
  0.00000000E+00  0.00000000E+00  0.00000000E+00  0.00000000E+00  0.00000000E+00
  0.00000000E+00  0.00000000E+00  0.00000000E+00  0.00000000E+00  0.00000000E+00
  0.00000000E+00  0.00000000E+00  0.00000000E+00  0.00000000E+00  0.00000000E+00
  0.00000000E+00  0.00000000E+00  0.00000000E+00  0.00000000E+00  0.00000000E+00
  0.00000000E+00  0.00000000E+00  0.00000000E+00  0.00000000E+00  0.00000000E+00
IOpCl                                      I                0
IROHF                                      I                0
Alpha Orbital Energies                     R   N=         204
 -2.05342752E+01 -1.13257297E+01 -1.12295831E+01 -1.12295613E+01 -1.38687705E+00
 -1.04477244E+00 -9.68841217E-01 -7.41291744E-01 -6.46777939E-01 -6.38861578E-01
 -6.26374067E-01 -5.63520544E-01 -5.61349915E-01 -5.39803329E-01 -4.89199611E-01
 -4.13945082E-01  8.82263677E-02  1.24254602E-01  1.28741267E-01  1.53471876E-01
  1.66778649E-01  1.75245267E-01  1.82677500E-01  2.05080896E-01  2.51326023E-01
  2.70810307E-01  2.79058039E-01  2.93589571E-01  2.99194227E-01  3.52984042E-01
  3.55692058E-01  4.21829788E-01  4.26744479E-01  4.56472352E-01  4.91853494E-01
  4.94584393E-01  4.96548662E-01  5.06793728E-01  5.09306140E-01  5.18127873E-01
  5.66356503E-01  6.07358336E-01  6.50457396E-01  6.60421728E-01  7.02129679E-01
  7.55482807E-01  7.94763519E-01  8.61731478E-01  8.71821936E-01  9.60070367E-01
  9.70679841E-01  1.02917925E+00  1.11165909E+00  1.11235433E+00  1.13120498E+00
  1.17315116E+00  1.17448143E+00  1.18672080E+00  1.20854693E+00  1.22603346E+00
  1.24242770E+00  1.28279469E+00  1.29286421E+00  1.29738659E+00  1.34703875E+00
  1.39085353E+00  1.41942030E+00  1.45416641E+00  1.46058056E+00  1.47540540E+00
  1.49713066E+00  1.52474530E+00  1.59560783E+00  1.62625186E+00  1.70229972E+00
  1.73488230E+00  1.75611590E+00  1.75932656E+00  1.77306855E+00  1.87449580E+00
  1.90059500E+00  1.90916937E+00  1.91012550E+00  2.00636259E+00  2.04407205E+00
  2.07331140E+00  2.08377767E+00  2.16218669E+00  2.17656209E+00  2.21574033E+00
  2.23850297E+00  2.25949351E+00  2.35128280E+00  2.36532007E+00  2.53431807E+00
  2.53857084E+00  2.61934688E+00  2.63242513E+00  2.81101860E+00  2.82215048E+00
  2.84124660E+00  2.92433089E+00  3.02464062E+00  3.03889463E+00  3.34039103E+00
  3.37516279E+00  3.43371370E+00  3.46744403E+00  3.51129707E+00  3.52680485E+00
  3.60923448E+00  3.61372187E+00  3.65884662E+00  3.71369275E+00  3.72452376E+00
  3.73601596E+00  3.74221634E+00  3.77575254E+00  3.92043213E+00  3.93786121E+00
  4.01041463E+00  4.02337350E+00  4.14190501E+00  4.14820807E+00  4.15164426E+00
  4.16149248E+00  4.16617124E+00  4.17236099E+00  4.19426581E+00  4.20394418E+00
  4.31566003E+00  4.33794593E+00  4.40320682E+00  4.42589532E+00  4.44234555E+00
  4.49153482E+00  4.49762774E+00  4.53353845E+00  4.56671799E+00  4.56843431E+00
  4.63373055E+00  4.65319951E+00  4.65816656E+00  4.66305222E+00  4.70301990E+00
  4.72978923E+00  4.78109798E+00  4.85293896E+00  4.86029234E+00  4.87858213E+00
  4.88319684E+00  4.90620952E+00  4.92436387E+00  4.94424016E+00  4.94859855E+00
  4.96659165E+00  4.97153704E+00  4.99501784E+00  5.03492653E+00  5.05777693E+00
  5.07923332E+00  5.12576198E+00  5.13528547E+00  5.16132064E+00  5.20600605E+00
  5.25276195E+00  5.30641380E+00  5.32691195E+00  5.40414035E+00  5.44636157E+00
  5.46441441E+00  5.47845883E+00  5.54682479E+00  5.72051269E+00  5.72374857E+00
  5.75565921E+00  5.84447155E+00  5.89072962E+00  5.97712716E+00  6.03999367E+00
  6.06885605E+00  6.14602902E+00  6.19223919E+00  6.19981472E+00  6.20749627E+00
  6.21165617E+00  6.22612362E+00  6.27258260E+00  6.28071427E+00  6.28998079E+00
  6.32325256E+00  6.33422904E+00  6.52909577E+00  6.53404960E+00  6.55156714E+00
  6.57234552E+00  6.61249006E+00  6.66765849E+00  6.70325325E+00  6.71710114E+00
  7.01613170E+00  7.02244729E+00  7.32627890E+00  7.82493170E+00
Alpha MO coefficients                      R   N=       41616
 -2.91207700E-07 -9.07090693E-05 -3.60515138E-04 -1.28487321E-04 -7.09414932E-06
  1.88823288E-05 -6.21384805E-05 -6.63070699E-05 -2.09036776E-04  1.38950044E-04
 -3.25019635E-06 -4.54346719E-05 -3.68443325E-04 -3.10150244E-05 -1.37034448E-06
  1.00035583E-05  3.81872413E-05 -3.30289539E-06  9.00056289E-05  2.24581934E-05
 -4.56196187E-05 -1.56387825E-04  8.40774131E-06 -1.07782851E-05 -4.39940248E-06
  1.89908797E-05  4.38665523E-06 -1.43373943E-06  3.61313634E-06  2.83085325E-05
  4.85784328E-05 -1.45503755E-04 -1.06437483E-03  1.39819189E-03  5.23734056E-16
  8.40090555E-16 -2.10014579E-04  3.55201565E-15 -5.19590050E-14 -9.47412681E-04
  4.92798673E-15  3.11553802E-15  1.33459592E-03 -2.06594454E-04 -8.02472828E-17
 -3.04368695E-15  2.77572720E-05 -1.07804138E-06 -5.71539184E-04  4.68114727E-15
  1.71486217E-14  4.06970790E-05  6.89994320E-06 -1.26302772E-04  2.08056411E-15
 -3.68746656E-15  2.53656611E-05 -2.93232159E-06  3.11468365E-16  1.21264012E-15
  9.96529123E-01  1.29522691E-02  1.96210696E-03 -1.97703585E-03  1.43946787E-15
 -1.34158414E-15 -1.45484059E-03 -4.28396635E-15  3.78117575E-15 -3.92836184E-04
 -1.24443472E-15  1.64122566E-15 -1.01548458E-04  9.21446564E-05 -4.10135099E-15
 -1.00169826E-15 -1.36747856E-04  3.80702169E-06  4.21212793E-04  5.97081897E-15
 -1.14557560E-15 -8.61214016E-05  1.13365973E-06 -2.26063290E-04 -2.03158160E-15
  1.27463024E-15 -1.52990266E-05  3.14903845E-07 -1.15782534E-16  1.75415454E-16
 -2.91207697E-07 -9.07090692E-05 -3.60515138E-04 -1.28487321E-04  7.09414932E-06
 -1.88823288E-05 -6.21384805E-05  6.63070699E-05  2.09036776E-04  1.38950044E-04
  3.25019633E-06  4.54346719E-05 -3.68443325E-04 -3.10150244E-05  1.37034448E-06
 -1.00035583E-05  3.81872413E-05 -3.30289539E-06  9.00056289E-05 -2.24581933E-05
  4.56196187E-05 -1.56387825E-04  8.40774132E-06 -1.07782851E-05  4.39940248E-06
 -1.89908797E-05  4.38665523E-06 -1.43373943E-06 -3.61313634E-06 -2.83085325E-05
 -6.28380372E-05  3.54452424E-04 -5.33083907E-07  2.69275439E-06  2.67650133E-05
  9.73520088E-06 -5.61597488E-06 -9.16618758E-05 -1.13454655E-04  8.16687761E-06
  2.18343165E-06  2.54365577E-05 -5.35717365E-06  2.45439277E-08  3.70224596E-05
  3.03077855E-04 -9.50951768E-05 -1.80224801E-06  4.42274539E-07  3.19330591E-06
 -3.29180020E-05 -3.01237136E-06  1.06325313E-04  1.88126050E-05 -4.96722358E-06
  3.52962897E-06 -3.94094303E-06  4.04008018E-06  4.64703972E-05  1.83535385E-04
 -6.02193490E-05  7.21694380E-06 -6.30445533E-06  1.43683352E-05  1.90223624E-05
  9.54029986E-06  3.96911967E-05  1.15546655E-05  6.33820358E-06  5.07084914E-06
 -7.13920451E-06 -1.96000856E-06  3.70224596E-05  3.03077855E-04 -9.50951768E-05
  1.80224801E-06 -4.42274539E-07  3.19330591E-06  3.29180020E-05  3.01237136E-06
  1.06325313E-04  1.88126050E-05  4.96722358E-06 -3.52962897E-06 -3.94094303E-06
  4.04008018E-06  4.64703972E-05  1.83535385E-04 -6.02193490E-05 -7.21694380E-06
  6.30445533E-06  1.43683352E-05 -1.90223625E-05 -9.54029986E-06  3.96911967E-05
  1.15546655E-05 -6.33820358E-06 -5.07084914E-06 -7.13920451E-06 -1.96000856E-06
 -6.28380372E-05  3.54452424E-04 -5.33083935E-07 -2.69275439E-06 -2.67650133E-05
  9.73520088E-06  5.61597488E-06  9.16618758E-05 -1.13454655E-04  8.16687761E-06
 -2.18343165E-06 -2.54365577E-05 -5.35717365E-06  2.45439283E-08  3.45396411E-03
  1.90494828E-04 -1.97584311E-03  2.50658136E-03 -6.77354382E-06  9.95021428E-05
 -1.21537406E-04 -4.96813568E-05  8.88165785E-04  4.78916659E-04  1.81823748E-04
 -9.40894159E-04  6.90353820E-04  2.92848229E-06 -2.10880239E-06  2.77434083E-04
  2.03957244E-04 -1.83363492E-06 -4.15471341E-05  5.19926675E-05 -8.80658721E-04
 -7.81408995E-04  2.19980818E-05 -4.11947038E-04 -4.81756036E-05 -1.56546839E-04
 -4.30987971E-04 -3.56910375E-05  2.52879686E-05  4.55352387E-04  9.97212047E-01
  3.75192333E-03  7.37114318E-05 -8.58014696E-03  3.50804296E-17 -4.74942989E-15
 -1.64344246E-03 -3.29802635E-15  1.17898686E-13 -7.75369194E-03 -3.17430985E-15
  2.27948266E-13  2.36507621E-03 -6.53557177E-04 -1.59913521E-17  4.58358182E-15
  2.72936996E-04  1.86097107E-06 -2.39526646E-03  3.94380445E-16 -4.43559160E-14
 -6.86186430E-04 -7.50432774E-06 -5.02057125E-04 -3.46497368E-16 -1.73325687E-16
  1.88318930E-04 -2.84435966E-06  6.13223433E-16 -3.05747691E-15 -8.49953997E-04
 -2.35409008E-03  8.53134429E-03  3.92737772E-03 -3.92418983E-17 -7.96879944E-16
  1.31249970E-04  2.32752543E-16  6.21991689E-15 -7.06103093E-03  8.31678331E-16
 -4.27553743E-14 -1.49949134E-03 -6.05455284E-05  6.86255520E-16 -1.15891232E-15
 -3.50607905E-05  1.52422678E-06  3.59534232E-03 -7.67715307E-16 -6.85533679E-16
  2.04792253E-04 -5.05113632E-06 -1.61768561E-03  3.30196846E-16  2.76198436E-15
 -7.18453035E-05 -1.06333522E-07 -6.74772164E-17 -3.49690063E-16  3.45396411E-03
  1.90494828E-04 -1.97584311E-03  2.50658136E-03  6.77354383E-06 -9.95021428E-05
 -1.21537406E-04  4.96813568E-05 -8.88165784E-04  4.78916659E-04 -1.81823748E-04
  9.40894160E-04  6.90353820E-04  2.92848230E-06  2.10880239E-06 -2.77434083E-04