Title Card Required                                                     
Stability UHF                                                         CC-pVDZ             
Number of atoms                            I                3
Info1-9                                    I   N=           9
          12          12           0           0           0         110
           7           1           2
Full Title                                 C   N=           2
Title Card Required     
Route                                      C   N=           6
#p UHF/cc-pVDZ 5D 7F nosymm stable=opt int=acc2e=10 int=noba
sistransform
Charge                                     I                0
Multiplicity                               I                2
Number of electrons                        I               15
Number of alpha electrons                  I                8
Number of beta electrons                   I                7
Number of basis functions                  I               42
Number of independent functions            I               42
Number of point charges in /Mol/           I                0
Number of translation vectors              I                0
Atomic numbers                             I   N=           3
           5           5           5
Nuclear charges                            R   N=           3
  5.00000000E+00  5.00000000E+00  5.00000000E+00
Current cartesian coordinates              R   N=           9
 -3.39472291E-01  4.94876753E+00  0.00000000E+00 -1.79034921E+00  2.43616311E+00
  0.00000000E+00  1.11140463E+00  2.43616311E+00  0.00000000E+00
Number of symbols in /Mol/                 I                0
Force Field                                I                0
Atom Types                                 C   N=           3
                                    
Int Atom Types                             I   N=           3
           0           0           0
MM charges                                 R   N=           3
  0.00000000E+00  0.00000000E+00  0.00000000E+00
Integer atomic weights                     I   N=           3
          11          11          11
Real atomic weights                        R   N=           3
  1.10093053E+01  1.10093053E+01  1.10093053E+01
Atom fragment info                         I   N=           3
           0           0           0
Atom residue num                           I   N=           3
           0           0           0
Nuclear spins                              I   N=           3
           3           3           3
Nuclear ZEff                               R   N=           3
 -2.75000000E+00 -2.75000000E+00 -2.75000000E+00
Nuclear ZNuc                               R   N=           3
  5.00000000E+00  5.00000000E+00  5.00000000E+00
Nuclear QMom                               R   N=           3
  4.05900000E+00  4.05900000E+00  4.05900000E+00
Nuclear GFac                               R   N=           3
  2.68863700E+00  2.68863700E+00  2.68863700E+00
MicOpt                                     I   N=           3
          -1          -1          -1
Number of residues                         I                0
Number of secondary structures             I                0
Number of contracted shells                I               18
Number of primitive shells                 I               66
Pure/Cartesian d shells                    I                0
Pure/Cartesian f shells                    I                0
Highest angular momentum                   I                2
Largest degree of contraction              I                8
Shell types                                I   N=          18
           0           0           0           1           1          -2
           0           0           0           1           1          -2
           0           0           0           1           1          -2
Number of primitives per shell             I   N=          18
           8           8           1           3           1           1
           8           8           1           3           1           1
           8           8           1           3           1           1
Shell to atom map                          I   N=          18
           1           1           1           1           1           1
           2           2           2           2           2           2
           3           3           3           3           3           3
Primitive exponents                        R   N=          66
  4.57000000E+03  6.85900000E+02  1.56500000E+02  4.44700000E+01  1.44800000E+01
  5.13100000E+00  1.89800000E+00  3.32900000E-01  4.57000000E+03  6.85900000E+02
  1.56500000E+02  4.44700000E+01  1.44800000E+01  5.13100000E+00  1.89800000E+00
  3.32900000E-01  1.04300000E-01  6.00100000E+00  1.24100000E+00  3.36400000E-01
  9.53800000E-02  3.43000000E-01  4.57000000E+03  6.85900000E+02  1.56500000E+02
  4.44700000E+01  1.44800000E+01  5.13100000E+00  1.89800000E+00  3.32900000E-01
  4.57000000E+03  6.85900000E+02  1.56500000E+02  4.44700000E+01  1.44800000E+01
  5.13100000E+00  1.89800000E+00  3.32900000E-01  1.04300000E-01  6.00100000E+00
  1.24100000E+00  3.36400000E-01  9.53800000E-02  3.43000000E-01  4.57000000E+03
  6.85900000E+02  1.56500000E+02  4.44700000E+01  1.44800000E+01  5.13100000E+00
  1.89800000E+00  3.32900000E-01  4.57000000E+03  6.85900000E+02  1.56500000E+02
  4.44700000E+01  1.44800000E+01  5.13100000E+00  1.89800000E+00  3.32900000E-01
  1.04300000E-01  6.00100000E+00  1.24100000E+00  3.36400000E-01  9.53800000E-02
  3.43000000E-01
Contraction coefficients                   R   N=          66
  6.95554418E-04  5.34957299E-03  2.71166287E-02  1.01315096E-01  2.71880829E-01
  4.48115931E-01  2.89937262E-01  1.43128310E-02 -2.81280224E-04 -2.21988781E-03
 -1.10164715E-02 -4.43491899E-02 -1.20912048E-01 -2.80737900E-01 -2.66066809E-01
  1.09178413E+00  1.00000000E+00  5.41658633E-02  3.02379890E-01  7.71292217E-01
  1.00000000E+00  1.00000000E+00  6.95554418E-04  5.34957299E-03  2.71166287E-02
  1.01315096E-01  2.71880829E-01  4.48115931E-01  2.89937262E-01  1.43128310E-02
 -2.81280224E-04 -2.21988781E-03 -1.10164715E-02 -4.43491899E-02 -1.20912048E-01
 -2.80737900E-01 -2.66066809E-01  1.09178413E+00  1.00000000E+00  5.41658633E-02
  3.02379890E-01  7.71292217E-01  1.00000000E+00  1.00000000E+00  6.95554418E-04
  5.34957299E-03  2.71166287E-02  1.01315096E-01  2.71880829E-01  4.48115931E-01
  2.89937262E-01  1.43128310E-02 -2.81280224E-04 -2.21988781E-03 -1.10164715E-02
 -4.43491899E-02 -1.20912048E-01 -2.80737900E-01 -2.66066809E-01  1.09178413E+00
  1.00000000E+00  5.41658633E-02  3.02379890E-01  7.71292217E-01  1.00000000E+00
  1.00000000E+00
Coordinates of each shell                  R   N=          54
 -3.39472291E-01  4.94876753E+00  0.00000000E+00 -3.39472291E-01  4.94876753E+00
  0.00000000E+00 -3.39472291E-01  4.94876753E+00  0.00000000E+00 -3.39472291E-01
  4.94876753E+00  0.00000000E+00 -3.39472291E-01  4.94876753E+00  0.00000000E+00
 -3.39472291E-01  4.94876753E+00  0.00000000E+00 -1.79034921E+00  2.43616311E+00
  0.00000000E+00 -1.79034921E+00  2.43616311E+00  0.00000000E+00 -1.79034921E+00
  2.43616311E+00  0.00000000E+00 -1.79034921E+00  2.43616311E+00  0.00000000E+00
 -1.79034921E+00  2.43616311E+00  0.00000000E+00 -1.79034921E+00  2.43616311E+00
  0.00000000E+00  1.11140463E+00  2.43616311E+00  0.00000000E+00  1.11140463E+00
  2.43616311E+00  0.00000000E+00  1.11140463E+00  2.43616311E+00  0.00000000E+00
  1.11140463E+00  2.43616311E+00  0.00000000E+00  1.11140463E+00  2.43616311E+00
  0.00000000E+00  1.11140463E+00  2.43616311E+00  0.00000000E+00
Num ILSW                                   I              100
ILSW                                       I   N=         100
           1           0           0           0           2           1
           0           0           0           0           0          -1
           5           0           0           0           0           0
           0           0           0           0           0           0
           1           1           0           0           0           0
           0           0      100000           0          -1           0
           0           0           0           0           0           0
           0           0           0           1           0           0
           0 -2000000000           1           0           0           0
           0           0           4          52           0           0
           0           0           0           0           0           0
           0           0           0           3           0           1
           0           0           0           0           0           0
           0           0           0           0           0           0
           0           0           0           0           0           0
           0           0           0           0           0           0
           0           0           0           0
Num RLSW                                   I               52
RLSW                                       R   N=          52
  1.00000000E+00  1.00000000E+00  1.00000000E+00  1.00000000E+00  1.00000000E+00
  0.00000000E+00  0.00000000E+00  1.00000000E+00  0.00000000E+00  0.00000000E+00
  0.00000000E+00  0.00000000E+00  1.00000000E+00  0.00000000E+00  0.00000000E+00
  0.00000000E+00  0.00000000E+00  1.00000000E+00  0.00000000E+00  0.00000000E+00
  0.00000000E+00  0.00000000E+00  1.00000000E+00  0.00000000E+00  0.00000000E+00
  0.00000000E+00  0.00000000E+00  1.00000000E+00  0.00000000E+00  0.00000000E+00
  0.00000000E+00  0.00000000E+00  1.00000000E+00  0.00000000E+00  0.00000000E+00
  0.00000000E+00  0.00000000E+00  0.00000000E+00  1.00000000E+00  1.00000000E+00
  0.00000000E+00  1.00000000E+00  0.00000000E+00  0.00000000E+00  0.00000000E+00
  0.00000000E+00  0.00000000E+00  0.00000000E+00  0.00000000E+00  0.00000000E+00
  0.00000000E+00  0.00000000E+00
MxBond                                     I                2
NBond                                      I   N=           3
           2           2           2
IBond                                      I   N=           6
           2           3           1           3           1           2
RBond                                      R   N=           6
  2.00000000E+00  2.00000000E+00  2.00000000E+00  2.00000000E+00  2.00000000E+00
  2.00000000E+00
Virial Ratio                               R      1.996975190517644E+00
SCF Energy                                 R     -7.377726666322948E+01
Total Energy                               R     -7.377726666322948E+01
S**2                                       R      1.466910336597097E+00
S**2 after annihilation                    R      1.109183289411507E+00
RMS Density                                R      9.433631686534403E-09
Job Status                                 I                1
Nuclear derivative order                   I                0
External E-field                           R   N=          35
  0.00000000E+00  0.00000000E+00  0.00000000E+00  0.00000000E+00  0.00000000E+00
  0.00000000E+00  0.00000000E+00  0.00000000E+00  0.00000000E+00  0.00000000E+00
  0.00000000E+00  0.00000000E+00  0.00000000E+00  0.00000000E+00  0.00000000E+00
  0.00000000E+00  0.00000000E+00  0.00000000E+00  0.00000000E+00  0.00000000E+00
  0.00000000E+00  0.00000000E+00  0.00000000E+00  0.00000000E+00  0.00000000E+00
  0.00000000E+00  0.00000000E+00  0.00000000E+00  0.00000000E+00  0.00000000E+00
  0.00000000E+00  0.00000000E+00  0.00000000E+00  0.00000000E+00  0.00000000E+00
IOpCl                                      I                1
IROHF                                      I                0
Alpha Orbital Energies                     R   N=          42
 -7.66937015E+00 -7.66713065E+00 -7.66711172E+00 -8.66169011E-01 -4.55234589E-01
 -4.55181164E-01 -4.05478806E-01 -3.70957054E-01  6.23714834E-03  6.25992800E-03
  1.25934682E-01  1.25969571E-01  2.25203975E-01  2.25208452E-01  2.94011481E-01
  3.34534805E-01  3.84894826E-01  4.23080076E-01  4.23109122E-01  5.08290142E-01
  5.24377696E-01  5.24406038E-01  6.38904611E-01  7.27072187E-01  7.27156772E-01
  7.89377426E-01  8.68597563E-01  8.68629232E-01  8.87360153E-01  8.87365954E-01
  9.06781645E-01  1.18812360E+00  1.18814746E+00  1.28809359E+00  1.34487518E+00
  1.35608382E+00  1.35612172E+00  1.37678079E+00  1.37683423E+00  1.64582740E+00
  1.64718723E+00  1.64735498E+00
Beta Orbital Energies                      R   N=          42
 -7.66016159E+00 -7.65803948E+00 -7.65802358E+00 -8.86000496E-01 -4.69380846E-01
 -4.69324715E-01 -3.65663987E-01  6.21704130E-03  7.23346271E-02  7.23580264E-02
  1.58030449E-01  1.58057127E-01  2.41930433E-01  2.41933443E-01  3.09410093E-01
  3.78868127E-01  3.91256558E-01  4.28589433E-01  4.28617107E-01  5.36437754E-01
  5.36467332E-01  5.53262046E-01  6.26680432E-01  7.68687357E-01  7.68768630E-01
  7.71030808E-01  8.77000390E-01  8.77002279E-01  8.85175671E-01  8.85204619E-01
  9.60577929E-01  1.19121938E+00  1.19124967E+00  1.29811480E+00  1.37835749E+00
  1.38216158E+00  1.38218827E+00  1.40419532E+00  1.40424202E+00  1.64042685E+00
  1.65843539E+00  1.65860818E+00
Alpha MO coefficients                      R   N=        1764
  5.72676062E-01  7.80491532E-04 -1.39526650E-03 -4.48817634E-15 -1.13475723E-04
  9.84047500E-17  3.55978576E-14 -2.78307273E-05  8.81155077E-16 -4.21579053E-04
  2.88597698E-16 -1.08509131E-15 -8.16223147E-04  1.00042932E-15  5.79497002E-01
  8.14441532E-04 -1.52191954E-03  1.01303570E-04  6.00016937E-05 -1.58562857E-16
 -2.67105116E-06 -1.19833496E-05 -3.24595404E-17 -4.23223293E-04  1.36458999E-16
  2.27338612E-16  4.10630679E-04  7.12464352E-04  5.79497003E-01  8.14441532E-04
 -1.52191954E-03 -1.01303570E-04  6.00016937E-05 -2.39849141E-17  2.67105130E-06
 -1.19833497E-05 -1.13495902E-15 -4.23223293E-04 -1.06992180E-16 -5.78660315E-16
  4.10630679E-04 -7.12464352E-04  1.55664417E-09  7.80836729E-12 -2.87526452E-11
  2.69171927E-04 -1.11864892E-12 -5.00910650E-16 -1.89949778E-03  8.20433199E-12
 -7.75999999E-16 -4.30950239E-13  9.64456838E-17  1.49252078E-15 -1.47581783E-12
 -1.16879181E-04  7.09196686E-01  3.58540842E-03 -1.32284495E-02  5.11137713E-04
  1.39596616E-04  1.71972870E-16 -3.75104274E-03 -1.06996043E-03  7.95311350E-16
 -1.91677388E-04  9.78645071E-16  3.79467394E-16  3.84875362E-04  5.49157840E-04
 -7.09196687E-01 -3.58540842E-03  1.32284496E-02  5.11137713E-04 -1.39596617E-04
  2.05217906E-16 -3.75104275E-03  1.06996044E-03  9.58948842E-17  1.91677388E-04
 -2.03860586E-16  6.48020278E-16 -3.84875362E-04  5.49157842E-04  8.22102951E-01
  4.14516171E-03 -1.52865957E-02 -5.05497696E-13 -5.92653640E-04  9.89382792E-17
  3.57738277E-12  4.36955808E-03 -5.24925127E-16 -2.23562603E-04  1.08793443E-16
  8.66512451E-17 -7.75686798E-04  2.19797487E-13 -4.06243626E-01 -2.06566854E-03
  7.63096708E-03 -1.39098526E-04 -3.49516026E-04  5.24727952E-17  1.06999634E-03
  2.51660246E-03  1.94592283E-16  1.08253846E-04  3.32966677E-17  8.91812624E-17
 -1.02738899E-04 -3.80625356E-04 -4.06243623E-01 -2.06566852E-03  7.63096703E-03
  1.39098524E-04 -3.49516026E-04 -1.19445973E-17 -1.06999633E-03  2.51660246E-03
  9.52708713E-17  1.08253845E-04  3.40364979E-17  1.36276915E-16 -1.02738897E-04
  3.80625354E-04 -3.51931853E-02  2.45446832E-01  1.17571186E-01  7.16676704E-15
 -1.58958357E-01 -1.15742500E-16  1.82111906E-14 -7.34647311E-03  2.44515259E-17
 -1.56377700E-02 -1.20907515E-16  3.26591192E-16 -3.13817214E-02 -3.68419660E-15
 -3.51823982E-02  2.45435687E-01  1.17553371E-01  1.37653215E-01  7.94656888E-02
  5.49221637E-16  6.35757238E-03  3.66991941E-03  2.83140352E-16 -1.56344011E-02
  8.12762656E-16  7.11255344E-16  1.56914106E-02  2.71715527E-02 -3.51823982E-02
  2.45435687E-01  1.17553371E-01 -1.37653215E-01  7.94656888E-02 -3.09547951E-16
 -6.35757238E-03  3.66991941E-03  8.59319483E-17 -1.56344011E-02  4.89949344E-16
 -3.86004342E-16  1.56914106E-02 -2.71715527E-02 -4.19250279E-13  5.54134031E-11
  6.98619115E-11 -1.70878482E-01  3.19173142E-11  5.12484334E-16 -5.24189955E-02
  1.70117582E-11  2.02121829E-16 -1.21821400E-12  1.96117491E-17 -1.01903492E-16
 -3.98108497E-12  1.47788481E-02 -2.25875678E-03  3.03839854E-01  3.82212985E-01
 -1.94715671E-01 -1.37605813E-02 -2.02435780E-15 -9.42578060E-02 -2.41442887E-02
  9.06932501E-16 -6.66600338E-03  3.46348037E-16 -1.16998663E-16  4.49276252E-03
  2.25551379E-02  2.25875678E-03 -3.03839854E-01 -3.82212985E-01 -1.94715671E-01
  1.37605814E-02  9.47900991E-16 -9.42578060E-02  2.41442888E-02 -1.84528059E-15
  6.66600339E-03 -1.55956335E-18  3.18472439E-16 -4.49276252E-03  2.25551379E-02
 -2.61161204E-03  3.50812410E-01  4.41327272E-01  2.69994576E-11  2.02641418E-01
  1.46967199E-15  8.25506781E-12  1.08209234E-01  5.04467194E-16 -7.69415297E-03
 -7.05399267E-17 -1.52691125E-16 -2.51459792E-02 -2.32985915E-12  1.29926191E-03
 -1.75425443E-01 -2.20702606E-01  1.37982104E-02  1.78842717E-01  9.95439436E-16
  2.41654906E-02  6.63897318E-02  8.28075671E-16  3.84831386E-03 -3.73726727E-16
 -6.65528798E-17 -1.73757715E-02 -4.49017772E-03  1.29926191E-03 -1.75425443E-01
 -2.20702606E-01 -1.37982104E-02  1.78842717E-01 -1.55487023E-16 -2.41654906E-02
  6.63897318E-02 -2.24265271E-16  3.84831385E-03 -2.15856339E-16  4.34455964E-17
 -1.73757715E-02  4.49017772E-03  6.21232557E-03  8.52254637E-02  2.68251337E-01
 -3.15661276E-14  3.51508867E-01  1.11459378E-16  3.63093657E-14  1.56573388E-01
 -3.64003159E-16  5.01003702E-03  1.34129166E-16  2.49401677E-16  1.81195016E-02
 -2.92231980E-15  6.21276576E-03  8.52185921E-02  2.68268996E-01 -3.04476573E-01
 -1.75694474E-01 -1.39650082E-15 -1.35614104E-01 -7.82618755E-02 -1.14939987E-15
  5.00581529E-03  5.33971216E-17 -2.01580512E-16 -9.05656587E-03 -1.56778762E-02
  6.21276576E-03  8.52185921E-02  2.68268996E-01  3.04476573E-01 -1.75694474E-01
  1.14928777E-16  1.35614104E-01 -7.82618755E-02  2.82899589E-16  5.00581529E-03
  7.14075348E-16 -4.29390411E-16 -9.05656587E-03  1.56778762E-02  4.84334798E-16
  1.71195849E-16 -6.26494697E-15 -3.03249190E-15  1.19250075E-15  3.26325411E-01
 -1.74134710E-15  4.59526477E-15  1.55477248E-01  3.58994041E-16  8.48896934E-16
 -3.25413675E-02  6.84451801E-16  1.02408729E-18  2.97924701E-18  6.64082948E-16
  1.03258163E-14  2.52181947E-15  4.06682238E-16  3.26295710E-01  5.10452406E-15
  3.14280059E-15  1.55469443E-01 -3.65691251E-16  2.81790913E-02  1.62673984E-02
 -4.99776688E-16  1.45006434E-16  8.80102089E-16  2.02622342E-15 -3.94531615E-15
  1.61578718E-15 -3.01454728E-15  3.26295710E-01  3.30159248E-15 -2.11957858E-15
  1.55469443E-01  5.99050213E-16 -2.81790913E-02  1.62673984E-02  3.35545651E-16
  2.25435691E-16 -1.51484668E-13 -5.36240057E-12 -2.22155280E-11  3.78935559E-01
 -4.74986562E-11  3.20683852E-16  3.65783339E-01 -6.95798872E-11 -2.19109889E-17
  3.49740617E-13  3.41091598E-16  4.60154309E-17  4.89913317E-12  1.28226419E-03
  6.91995460E-04  2.56974298E-02  1.06827247E-01 -1.03555402E-01 -2.78576272E-01
  2.88143671E-15 -1.99157092E-01 -3.26186648E-01  6.21647727E-15 -1.69894870E-03
 -8.08155066E-17  3.58530385E-16  1.12240746E-02  2.07302527E-02 -6.91995460E-04
 -2.56974298E-02 -1.06827247E-01 -1.03555402E-01  2.78576272E-01  4.25386349E-16
 -1.99157092E-01  3.26186648E-01 -6.35926611E-16  1.69894870E-03 -2.63697908E-16
 -3.35325136E-16 -1.12240746E-02  2.07302527E-02  7.89449603E-04  2.96760394E-02
  1.23479237E-01  6.80943746E-11  2.64396233E-01 -6.99302867E-16  6.59015614E-11
  3.87530858E-01 -7.13389915E-16 -1.96146754E-03  3.07393436E-17  1.67023589E-16
 -2.72110769E-02  2.14207492E-13 -3.95294540E-04 -1.48550117E-02 -6.16353341E-02
  2.78504818E-01 -2.18145118E-01 -6.33634618E-16  3.26153591E-01 -1.77573457E-01
 -4.71028283E-16  9.82912090E-04 -3.13060865E-16  5.56317019E-17 -7.77208848E-03
 -1.12266680E-02 -3.95294540E-04 -1.48550117E-02 -6.16353342E-02 -2.78504818E-01
 -2.18145117E-01 -4.59714003E-16 -3.26153591E-01 -1.77573457E-01 -5.59623873E-16
  9.82912091E-04 -3.83762380E-16 -8.71567397E-17 -7.77208849E-03  1.12266680E-02
 -3.09447416E-17 -4.87432136E-16  6.13328395E-17 -1.68054958E-15  1.05855278E-16
  1.03069281E-10 -5.83420226E-15  3.26094497E-16  2.80961458E-10 -1.24792147E-17
 -3.00359051E-02  6.95385422E-12  2.72233840E-16 -1.40051504E-16  4.21901780E-16
  6.65779647E-16 -1.18091495E-14 -1.26119807E-17  5.82468110E-16  3.17687602E-01
 -4.58583369E-15 -1.74619985E-15  8.66042774E-01  3.37749920E-16 -2.61211142E-02
  2.26198138E-03 -2.01742410E-16 -5.70722383E-16 -5.62359011E-16 -6.59521959E-16
  1.38186785E-14  4.27605826E-16 -8.96504858E-16 -3.17687602E-01 -3.10545728E-15
  7.59783480E-16 -8.66042774E-01 -6.07771657E-16 -2.61211142E-02 -2.26198136E-03
  8.88658766E-17 -3.90360451E-16  9.22377743E-17 -1.41255394E-16 -4.40105435E-15
  1.42650805E-15 -1.26210124E-16  3.66796232E-01  3.01209563E-15  1.77011642E-15
  1.00020959E+00  9.47600025E-17  8.44978166E-12  2.48032840E-02  4.03067662E-17
 -7.03676220E-16 -4.89015213E-16 -3.97114825E-16  1.97992129E-14 -2.73616873E-16
 -1.90689201E-15 -1.83396061E-01  1.02409143E-14  2.22007673E-15 -5.00145787E-01
 -2.34763486E-16 -2.25948364E-03  2.87293146E-02 -3.06454685E-17 -4.09478090E-16
  7.46063581E-17 -1.33068088E-16 -1.54503445E-14 -4.30963125E-16  2.03071734E-15
 -1.83396061E-01  8.40237611E-15 -5.83075463E-16 -5.00145786E-01 -5.10492896E-17
  2.25948365E-03  2.87293146E-02  1.66491078E-16 -5.05238237E-16 -1.31526503E-09
  7.69335820E-10  7.85091610E-08 -7.33686106E-02  8.04952176E-12 -6.20593637E-15
  1.17004429E+00 -3.87166326E-08 -4.93588359E-16 -9.33919805E-10 -6.23912568E-16
  6.16268835E-16 -6.98415362E-10 -2.17486095E-02 -8.05533138E-02  4.72011307E-02
  4.80816304E+00 -1.87743284E-02  3.14753875E-02 -8.83723482E-16  2.34640926E+00
  6.79111438E-01  7.05841158E-15 -5.72098976E-02 -2.03598238E-16 -5.68833633E-16
  3.08182954E-02  3.16296875E-02  8.05533151E-02 -4.72011314E-02 -4.80816312E+00
 -1.87743275E-02 -3.14753859E-02 -2.18933272E-15  2.34640927E+00 -6.79111482E-01
  1.75173196E-15  5.72098985E-02 -2.74059976E-16 -4.36016605E-16 -3.08182953E-02
  3.16296884E-02 -9.30226144E-02  5.44740141E-02  5.55345721E+00  1.03703213E-09
  6.13009354E-04  1.00915939E-15 -1.65433290E-08 -2.73879209E+00  2.44845263E-16
 -6.60637464E-02  7.03142906E-16 -9.71393000E-18 -4.94047028E-02  3.07600393E-10
  4.64984483E-02 -2.72544629E-02 -2.77669966E+00 -3.14978084E-02  5.51873198E-02
  1.71994198E-16 -6.79458534E-01 -1.56225663E+00 -2.97429196E-16  3.30295793E-02
 -2.90136184E-16 -4.94950547E-16  3.95033894E-03 -3.08205147E-02  4.64984460E-02
 -2.72544615E-02 -2.77669953E+00  3.14978089E-02  5.51873207E-02 -3.99761242E-16
  6.79458467E-01 -1.56225661E+00 -5.40026062E-16  3.30295777E-02  2.43838337E-16
  4.49226286E-16  3.95033981E-03  3.08205138E-02  9.22304071E-14  5.81957209E-13
  3.95104432E-12  1.81460225E-01  1.97641959E-13 -3.06625432E-15  2.14175320E+00
 -2.60671177E-12  7.25405542E-15 -1.29437171E-14 -5.58915487E-16 -5.63674958E-16
  3.98634171E-14 -3.56700441E-02 -3.18014878E-06  4.18384139E-06  1.19598650E-03
 -9.07577447E-02  1.57102359E-01  4.63721587E-15 -1.07025739E+00  1.85462682E+00
 -7.22788455E-15 -1.26629663E-05 -9.07481556E-16 -6.82605178E-16 -3.08574959E-02
  1.78308856E-02  3.18014862E-06 -4.18384201E-06 -1.19598650E-03 -9.07577447E-02
 -1.57102359E-01 -7.88894039E-17 -1.07025739E+00 -1.85462682E+00 -8.94657085E-16
  1.26629662E-05 -9.38821636E-16 -5.82419173E-16  3.08574959E-02  1.78308856E-02
  7.01387657E-02  4.94998924E-02  2.85922518E-01  3.78676865E-13 -3.90055992E-01
  7.33373164E-16 -2.43184350E-13  8.93609119E-01  1.12451528E-15  5.32590707E-03
  9.47711217E-16 -1.24066594E-15 -1.70889686E-02 -5.23310023E-14  7.01101509E-02
  4.94414927E-02  2.86211116E-01  3.37793176E-01  1.94991717E-01  2.48856994E-15
 -7.73737163E-01 -4.46700505E-01 -4.11203874E-15  5.31383536E-03  2.70317015E-16
 -3.67467174E-16  8.56700370E-03  1.47949383E-02  7.01101509E-02  4.94414927E-02
  2.86211116E-01 -3.37793176E-01  1.94991717E-01  1.38219455E-15  7.73737163E-01
 -4.46700505E-01 -1.14222898E-15  5.31383536E-03  1.46856122E-16 -9.50158170E-16
  8.56700370E-03 -1.47949383E-02  5.08330413E-16  1.32796799E-15 -3.31595720E-16
  1.05595799E-14  2.00900499E-15  4.58535556E-01 -6.02791983E-15 -3.75726371E-15
 -4.42138268E-01 -5.37690199E-16  1.21053119E-14 -1.10844071E-01  3.16103812E-16
  1.41729977E-16  1.32446791E-15  5.81362059E-15  4.33984007E-14 -4.39795359E-15
 -8.95106115E-15  4.58512265E-01  3.35052752E-14  1.72102745E-14 -4.42004192E-01
 -1.37541630E-15  9.60054981E-02  5.54197263E-02  2.02680262E-15  1.62857859E-15
  6.98715804E-16 -2.79776146E-16 -5.10798622E-14 -1.94703998E-15  7.07582298E-15
  4.58512265E-01  3.07041355E-14 -1.44719406E-14 -4.42004192E-01  1.18846275E-15
 -9.60054981E-02  5.54197263E-02 -1.78937764E-15  2.12714794E-15 -3.82774658E-13
 -5.38552889E-12 -1.98418938E-10  5.71310684E-01 -6.77119336E-11 -8.30897032E-15
 -6.01588841E-01  2.18724453E-10  6.18463808E-15  6.17860888E-12  2.45542820E-16
  1.72685045E-15  2.46538971E-11 -4.41786736E-02  1.37906212E-03  2.77604322E-02
  1.08783249E+00 -1.78080491E-01 -4.32678656E-01 -9.58601522E-15  8.86942588E-01
  8.59012421E-01  1.02795534E-14 -3.38436608E-02 -3.30802208E-16 -1.05211256E-15
  8.65138797E-02  1.05594938E-01 -1.37906212E-03 -2.77604322E-02 -1.08783249E+00
 -1.78080491E-01  4.32678656E-01 -8.45264345E-15  8.86942588E-01 -8.59012421E-01
  8.46132936E-15  3.38436608E-02  1.92785720E-15  1.89483592E-16 -8.65138797E-02
  1.05594937E-01 -1.58753349E-03 -3.20502856E-02 -1.25630812E+00 -9.05834511E-11
 -4.27826635E-01 -8.03331186E-16  9.52187717E-11  1.38291463E+00  4.52799994E-16
  3.90613969E-02  2.62330336E-16  1.52023298E-16  1.55607857E-01  6.91315840E-12
  8.51199453E-04  1.61538615E-02  6.28078845E-01 -4.32662605E-01  3.21614009E-01
  2.04554136E-15  8.59172235E-01 -1.05420226E-01 -1.06937529E-15 -1.95186026E-02
  5.17677721E-16  3.14539457E-17  5.75581996E-03  8.65131697E-02  8.51199454E-04
  1.61538615E-02  6.28078845E-01  4.32662605E-01  3.21614009E-01  5.33882850E-16
 -8.59172235E-01 -1.05420226E-01 -1.73203761E-17 -1.95186027E-02  3.03828136E-16
 -1.75052610E-16  5.75581999E-03 -8.65131697E-02  3.62379183E-01  8.59583281E-01
 -6.17137408E-01 -3.76286052E-15  1.58836236E-01  1.19210664E-15  1.50760348E-14
  1.52078789E-01 -2.49894777E-15 -1.41925848E-01 -2.50799231E-15  9.39549487E-16
 -2.54583395E-02 -1.25824693E-14  3.62422905E-01  8.59665083E-01 -6.17647762E-01
 -1.37503818E-01 -7.94738889E-02  3.71332550E-15 -1.31856666E-01 -7.61396526E-02
 -8.44512133E-15 -1.41935549E-01 -8.11724289E-16  9.95647827E-16  1.27312780E-02
  2.20320340E-02  3.62422905E-01  8.59665083E-01 -6.17647762E-01  1.37503818E-01
 -7.94738889E-02 -1.03344145E-14  1.31856666E-01 -7.61396526E-02  1.57207628E-14
 -1.41935549E-01 -2.36876686E-15 -2.81139443E-16  1.27312780E-02 -2.20320340E-02
  3.65812142E-15  8.85318691E-15 -5.30025213E-15  5.26185162E-15 -9.42898221E-17
 -8.24712523E-11 -1.58676815E-14  3.00188143E-15  1.34030209E-10 -1.41564525E-15
  1.47490199E-01 -1.74704417E-11  2.02538374E-16  3.95949433E-15  3.95790341E-15
  7.23630473E-15 -1.51997643E-15 -6.51307076E-15  7.58145625E-15 -7.46722314E-01
  1.07243496E-14 -1.83438781E-14  1.21343366E+00 -3.03198697E-15  1.73882459E-01
  1.52827408E-02  5.87655434E-15 -1.80774992E-15  4.14499237E-15  1.11905272E-14
 -1.21233598E-14 -4.15993654E-15 -9.11583436E-15  7.46722314E-01  1.42353176E-14
  1.58292576E-14 -1.21343366E+00 -1.57769703E-16  1.73882459E-01 -1.52827409E-02
 -6.95270103E-15 -1.98181000E-15  2.02157590E-15  5.41527446E-15 -9.27139406E-15
  6.62199269E-15  1.37316448E-15 -8.62204126E-01 -2.39983176E-14 -1.21849917E-15
  1.40124629E+00 -6.14368380E-16 -1.41053908E-11 -1.82790983E-01 -2.24552293E-16
  3.19028437E-15 -2.94533091E-15 -6.13698069E-15  3.02277654E-14  1.62561944E-15
  1.49347526E-15  4.31157198E-01  2.07946095E-14 -1.60942971E-14 -7.00664412E-01
 -3.61071976E-16 -1.52983606E-02 -1.56311137E-01  2.80285856E-15 -2.11154063E-15
  3.51030951E-15  7.75061961E-15 -2.83775237E-14  2.87254418E-15 -4.86021264E-15
  4.31157198E-01  1.93974612E-14  2.11751883E-14 -7.00664411E-01 -1.29924811E-15
  1.52983606E-02 -1.56311137E-01 -3.81231243E-15 -2.03705517E-15  4.37231353E-13
  9.48481925E-13 -4.38435062E-12 -5.09965199E-01  4.85261851E-13 -7.64813700E-15
  1.85076022E+00  1.22506220E-12  1.07759775E-14 -2.17340243E-14  3.23434627E-15
 -2.46415529E-15  2.74423982E-17 -4.01182210E-01  2.51344846E-05  1.05154973E-04
  2.12275505E-04  2.55386317E-01 -4.41894461E-01 -7.87293706E-15 -9.25445727E-01
  1.60283594E+00  1.46023170E-14  1.20764290E-04  3.21968905E-15 -1.12272501E-16
 -3.47599859E-01  2.00626342E-01 -2.51344851E-05 -1.05154974E-04 -2.12275501E-04
  2.55386317E-01  4.41894461E-01  1.66596595E-14 -9.25445727E-01 -1.60283594E+00
 -2.60285641E-14 -1.20764290E-04  1.85495384E-15 -2.51109581E-15  3.47599859E-01
  2.00626342E-01 -3.09438060E-11 -3.87327063E-11  2.35731072E-10  5.31833710E-01
 -8.07284445E-11  3.36792441E-15 -7.88096329E-02 -6.53504346E-11 -9.47080779E-15
  5.65888818E-11  1.11337758E-16 -3.17099141E-15  2.14854447E-11  2.46232702E-01
 -1.81458319E-01 -2.25434952E-01  1.37491238E+00  5.46735711E-01  8.92261318E-03
 -8.84484372E-15  3.09105850E-01  2.22845196E-01  1.29308368E-14  3.35125117E-01
  4.87945842E-15  3.57060910E-15 -1.70101280E-01 -4.90554084E-02  1.81458319E-01
  2.25434952E-01 -1.37491238E+00  5.46735711E-01 -8.92261334E-03 -1.11145231E-15
  3.09105850E-01 -2.22845196E-01 -1.59360029E-15 -3.35125117E-01  8.38929207E-16
  1.36527565E-15  1.70101280E-01 -4.90554084E-02 -2.09677564E-01 -2.60609507E-01
  1.58937738E+00 -7.79560715E-11 -5.51798323E-01  1.90446187E-15  1.26939467E-11
 -4.38311442E-01 -4.97077369E-16  3.87171135E-01  3.74283380E-15 -1.21743303E-15
  1.47030013E-01 -3.63122957E-11  1.04833535E-01  1.30322221E-01 -7.94705951E-01
 -8.87623418E-03 -5.36714904E-01  1.66641232E-15 -2.23525007E-01 -5.11425439E-02