HF file generated by AutoMR of MOKIT
Stability RHF                                                         CC-pVDZ
Number of atoms                            I               12
Info1-9                                    I   N=           9
          22          21           0           0           0         110
           7           1           2
Full Title                                 C   N=           3
HF file generated by AutoMR of MOKIT
Route                                      C   N=           8
#p scf(xqc,maxcycle=512) nosymm int(nobasistransform) UHF/CC
-PVDZ guess=mix stable=opt 5D 7F
Charge                                     I                0
Multiplicity                               I                1
Number of electrons                        I               42
Number of alpha electrons                  I               21
Number of beta electrons                   I               21
Number of basis functions                  I              114
Number of independent functions            I              114
Number of point charges in /Mol/           I                0
Number of translation vectors              I                0
Atomic numbers                             I   N=          12
           6           6           6           6           6           6
           1           1           1           1           1           1
Nuclear charges                            R   N=          12
  6.00000000E+00  6.00000000E+00  6.00000000E+00  6.00000000E+00  6.00000000E+00
  6.00000000E+00  1.00000000E+00  1.00000000E+00  1.00000000E+00  1.00000000E+00
  1.00000000E+00  1.00000000E+00
Current cartesian coordinates              R   N=          36
 -1.78679431E+00  2.30084081E+00 -2.33904253E-02  8.49675989E-01  2.30084081E+00
 -2.33904253E-02  2.16783177E+00  4.58315942E+00 -2.33904253E-02  8.49456781E-01
  6.86691045E+00 -2.56562069E-02 -1.78638046E+00  6.86676305E+00 -2.65613857E-02
 -3.10465530E+00  4.58358461E+00 -2.46792185E-02 -2.82568826E+00  5.01222491E-01
 -2.25400485E-02  1.88809561E+00  5.00852105E-01 -2.09054354E-02  4.24592580E+00
  4.58331060E+00 -2.21923389E-02  1.88918409E+00  8.66619995E+00 -2.57677007E-02
 -2.82596038E+00  8.66631334E+00 -2.83622947E-02 -5.18260570E+00  4.58393043E+00
 -2.50193692E-02
Number of symbols in /Mol/                 I                0
Force Field                                I                0
Atom Types                                 C   N=          12



Int Atom Types                             I   N=          12
           0           0           0           0           0           0
           0           0           0           0           0           0
MM charges                                 R   N=          12
  0.00000000E+00  0.00000000E+00  0.00000000E+00  0.00000000E+00  0.00000000E+00
  0.00000000E+00  0.00000000E+00  0.00000000E+00  0.00000000E+00  0.00000000E+00
  0.00000000E+00  0.00000000E+00
Integer atomic weights                     I   N=          12
          12          12          12          12          12          12
           1           1           1           1           1           1
Real atomic weights                        R   N=          12
  1.20000000E+01  1.20000000E+01  1.20000000E+01  1.20000000E+01  1.20000000E+01
  1.20000000E+01  1.00782504E+00  1.00782504E+00  1.00782504E+00  1.00782504E+00
  1.00782504E+00  1.00782504E+00
Atom fragment info                         I   N=          12
           0           0           0           0           0           0
           0           0           0           0           0           0
Atom residue num                           I   N=          12
           0           0           0           0           0           0
           0           0           0           0           0           0
Nuclear spins                              I   N=          12
           0           0           0           0           0           0
           1           1           1           1           1           1
Nuclear ZEff                               R   N=          12
 -3.60000000E+00 -3.60000000E+00 -3.60000000E+00 -3.60000000E+00 -3.60000000E+00
 -3.60000000E+00 -1.00000000E+00 -1.00000000E+00 -1.00000000E+00 -1.00000000E+00
 -1.00000000E+00 -1.00000000E+00
Nuclear ZNuc                               R   N=          12
  6.00000000E+00  6.00000000E+00  6.00000000E+00  6.00000000E+00  6.00000000E+00
  6.00000000E+00  1.00000000E+00  1.00000000E+00  1.00000000E+00  1.00000000E+00
  1.00000000E+00  1.00000000E+00
Nuclear QMom                               R   N=          12
  0.00000000E+00  0.00000000E+00  0.00000000E+00  0.00000000E+00  0.00000000E+00
  0.00000000E+00  0.00000000E+00  0.00000000E+00  0.00000000E+00  0.00000000E+00
  0.00000000E+00  0.00000000E+00
Nuclear GFac                               R   N=          12
  0.00000000E+00  0.00000000E+00  0.00000000E+00  0.00000000E+00  0.00000000E+00
  0.00000000E+00  2.79284600E+00  2.79284600E+00  2.79284600E+00  2.79284600E+00
  2.79284600E+00  2.79284600E+00
MicOpt                                     I   N=          12
          -1          -1          -1          -1          -1          -1
          -1          -1          -1          -1          -1          -1
Number of residues                         I                0
Number of secondary structures             I                0
Number of contracted shells                I               54
Number of primitive shells                 I              162
Pure/Cartesian d shells                    I                0
Pure/Cartesian f shells                    I                0
Highest angular momentum                   I                2
Largest degree of contraction              I                8
Shell types                                I   N=          54
           0           0           0           1           1          -2
           0           0           0           1           1          -2
           0           0           0           1           1          -2
           0           0           0           1           1          -2
           0           0           0           1           1          -2
           0           0           0           1           1          -2
           0           0           1           0           0           1
           0           0           1           0           0           1
           0           0           1           0           0           1
Number of primitives per shell             I   N=          54
           8           8           1           3           1           1
           8           8           1           3           1           1
           8           8           1           3           1           1
           8           8           1           3           1           1
           8           8           1           3           1           1
           8           8           1           3           1           1
           3           1           1           3           1           1
           3           1           1           3           1           1
           3           1           1           3           1           1
Shell to atom map                          I   N=          54
           1           1           1           1           1           1
           2           2           2           2           2           2
           3           3           3           3           3           3
           4           4           4           4           4           4
           5           5           5           5           5           5
           6           6           6           6           6           6
           7           7           7           8           8           8
           9           9           9          10          10          10
          11          11          11          12          12          12
Primitive exponents                        R   N=         162
  6.66500000E+03  1.00000000E+03  2.28000000E+02  6.47100000E+01  2.10600000E+01
  7.49500000E+00  2.79700000E+00  5.21500000E-01  6.66500000E+03  1.00000000E+03
  2.28000000E+02  6.47100000E+01  2.10600000E+01  7.49500000E+00  2.79700000E+00
  5.21500000E-01  1.59600000E-01  9.43900000E+00  2.00200000E+00  5.45600000E-01
  1.51700000E-01  5.50000000E-01  6.66500000E+03  1.00000000E+03  2.28000000E+02
  6.47100000E+01  2.10600000E+01  7.49500000E+00  2.79700000E+00  5.21500000E-01
  6.66500000E+03  1.00000000E+03  2.28000000E+02  6.47100000E+01  2.10600000E+01
  7.49500000E+00  2.79700000E+00  5.21500000E-01  1.59600000E-01  9.43900000E+00
  2.00200000E+00  5.45600000E-01  1.51700000E-01  5.50000000E-01  6.66500000E+03
  1.00000000E+03  2.28000000E+02  6.47100000E+01  2.10600000E+01  7.49500000E+00
  2.79700000E+00  5.21500000E-01  6.66500000E+03  1.00000000E+03  2.28000000E+02
  6.47100000E+01  2.10600000E+01  7.49500000E+00  2.79700000E+00  5.21500000E-01
  1.59600000E-01  9.43900000E+00  2.00200000E+00  5.45600000E-01  1.51700000E-01
  5.50000000E-01  6.66500000E+03  1.00000000E+03  2.28000000E+02  6.47100000E+01
  2.10600000E+01  7.49500000E+00  2.79700000E+00  5.21500000E-01  6.66500000E+03
  1.00000000E+03  2.28000000E+02  6.47100000E+01  2.10600000E+01  7.49500000E+00
  2.79700000E+00  5.21500000E-01  1.59600000E-01  9.43900000E+00  2.00200000E+00
  5.45600000E-01  1.51700000E-01  5.50000000E-01  6.66500000E+03  1.00000000E+03
  2.28000000E+02  6.47100000E+01  2.10600000E+01  7.49500000E+00  2.79700000E+00
  5.21500000E-01  6.66500000E+03  1.00000000E+03  2.28000000E+02  6.47100000E+01
  2.10600000E+01  7.49500000E+00  2.79700000E+00  5.21500000E-01  1.59600000E-01
  9.43900000E+00  2.00200000E+00  5.45600000E-01  1.51700000E-01  5.50000000E-01
  6.66500000E+03  1.00000000E+03  2.28000000E+02  6.47100000E+01  2.10600000E+01
  7.49500000E+00  2.79700000E+00  5.21500000E-01  6.66500000E+03  1.00000000E+03
  2.28000000E+02  6.47100000E+01  2.10600000E+01  7.49500000E+00  2.79700000E+00
  5.21500000E-01  1.59600000E-01  9.43900000E+00  2.00200000E+00  5.45600000E-01
  1.51700000E-01  5.50000000E-01  1.30100000E+01  1.96200000E+00  4.44600000E-01
  1.22000000E-01  7.27000000E-01  1.30100000E+01  1.96200000E+00  4.44600000E-01
  1.22000000E-01  7.27000000E-01  1.30100000E+01  1.96200000E+00  4.44600000E-01
  1.22000000E-01  7.27000000E-01  1.30100000E+01  1.96200000E+00  4.44600000E-01
  1.22000000E-01  7.27000000E-01  1.30100000E+01  1.96200000E+00  4.44600000E-01
  1.22000000E-01  7.27000000E-01  1.30100000E+01  1.96200000E+00  4.44600000E-01
  1.22000000E-01  7.27000000E-01
Contraction coefficients                   R   N=         162
  6.91583963E-04  5.32579615E-03  2.70607210E-02  1.01656846E-01  2.74574824E-01
  4.48294319E-01  2.84902611E-01  1.51948592E-02 -2.93269653E-04 -2.31803547E-03
 -1.14997860E-02 -4.68267270E-02 -1.28466169E-01 -3.01266272E-01 -2.55630702E-01
  1.09379336E+00  1.00000000E+00  5.69792516E-02  3.13207212E-01  7.60376742E-01
  1.00000000E+00  1.00000000E+00  6.91583963E-04  5.32579615E-03  2.70607210E-02
  1.01656846E-01  2.74574824E-01  4.48294319E-01  2.84902611E-01  1.51948592E-02
 -2.93269653E-04 -2.31803547E-03 -1.14997860E-02 -4.68267270E-02 -1.28466169E-01
 -3.01266272E-01 -2.55630702E-01  1.09379336E+00  1.00000000E+00  5.69792516E-02
  3.13207212E-01  7.60376742E-01  1.00000000E+00  1.00000000E+00  6.91583963E-04
  5.32579615E-03  2.70607210E-02  1.01656846E-01  2.74574824E-01  4.48294319E-01
  2.84902611E-01  1.51948592E-02 -2.93269653E-04 -2.31803547E-03 -1.14997860E-02
 -4.68267270E-02 -1.28466169E-01 -3.01266272E-01 -2.55630702E-01  1.09379336E+00
  1.00000000E+00  5.69792516E-02  3.13207212E-01  7.60376742E-01  1.00000000E+00
  1.00000000E+00  6.91583963E-04  5.32579615E-03  2.70607210E-02  1.01656846E-01
  2.74574824E-01  4.48294319E-01  2.84902611E-01  1.51948592E-02 -2.93269653E-04
 -2.31803547E-03 -1.14997860E-02 -4.68267270E-02 -1.28466169E-01 -3.01266272E-01
 -2.55630702E-01  1.09379336E+00  1.00000000E+00  5.69792516E-02  3.13207212E-01
  7.60376742E-01  1.00000000E+00  1.00000000E+00  6.91583963E-04  5.32579615E-03
  2.70607210E-02  1.01656846E-01  2.74574824E-01  4.48294319E-01  2.84902611E-01
  1.51948592E-02 -2.93269653E-04 -2.31803547E-03 -1.14997860E-02 -4.68267270E-02
 -1.28466169E-01 -3.01266272E-01 -2.55630702E-01  1.09379336E+00  1.00000000E+00
  5.69792516E-02  3.13207212E-01  7.60376742E-01  1.00000000E+00  1.00000000E+00
  6.91583963E-04  5.32579615E-03  2.70607210E-02  1.01656846E-01  2.74574824E-01
  4.48294319E-01  2.84902611E-01  1.51948592E-02 -2.93269653E-04 -2.31803547E-03
 -1.14997860E-02 -4.68267270E-02 -1.28466169E-01 -3.01266272E-01 -2.55630702E-01
  1.09379336E+00  1.00000000E+00  5.69792516E-02  3.13207212E-01  7.60376742E-01
  1.00000000E+00  1.00000000E+00  3.34987264E-02  2.34800801E-01  8.13682958E-01
  1.00000000E+00  1.00000000E+00  3.34987264E-02  2.34800801E-01  8.13682958E-01
  1.00000000E+00  1.00000000E+00  3.34987264E-02  2.34800801E-01  8.13682958E-01
  1.00000000E+00  1.00000000E+00  3.34987264E-02  2.34800801E-01  8.13682958E-01
  1.00000000E+00  1.00000000E+00  3.34987264E-02  2.34800801E-01  8.13682958E-01
  1.00000000E+00  1.00000000E+00  3.34987264E-02  2.34800801E-01  8.13682958E-01
  1.00000000E+00  1.00000000E+00
Coordinates of each shell                  R   N=         162
 -1.78679431E+00  2.30084081E+00 -2.33904253E-02 -1.78679431E+00  2.30084081E+00
 -2.33904253E-02 -1.78679431E+00  2.30084081E+00 -2.33904253E-02 -1.78679431E+00
  2.30084081E+00 -2.33904253E-02 -1.78679431E+00  2.30084081E+00 -2.33904253E-02
 -1.78679431E+00  2.30084081E+00 -2.33904253E-02  8.49675989E-01  2.30084081E+00
 -2.33904253E-02  8.49675989E-01  2.30084081E+00 -2.33904253E-02  8.49675989E-01
  2.30084081E+00 -2.33904253E-02  8.49675989E-01  2.30084081E+00 -2.33904253E-02
  8.49675989E-01  2.30084081E+00 -2.33904253E-02  8.49675989E-01  2.30084081E+00
 -2.33904253E-02  2.16783177E+00  4.58315942E+00 -2.33904253E-02  2.16783177E+00
  4.58315942E+00 -2.33904253E-02  2.16783177E+00  4.58315942E+00 -2.33904253E-02
  2.16783177E+00  4.58315942E+00 -2.33904253E-02  2.16783177E+00  4.58315942E+00
 -2.33904253E-02  2.16783177E+00  4.58315942E+00 -2.33904253E-02  8.49456781E-01
  6.86691045E+00 -2.56562069E-02  8.49456781E-01  6.86691045E+00 -2.56562069E-02
  8.49456781E-01  6.86691045E+00 -2.56562069E-02  8.49456781E-01  6.86691045E+00
 -2.56562069E-02  8.49456781E-01  6.86691045E+00 -2.56562069E-02  8.49456781E-01
  6.86691045E+00 -2.56562069E-02 -1.78638046E+00  6.86676305E+00 -2.65613857E-02
 -1.78638046E+00  6.86676305E+00 -2.65613857E-02 -1.78638046E+00  6.86676305E+00
 -2.65613857E-02 -1.78638046E+00  6.86676305E+00 -2.65613857E-02 -1.78638046E+00
  6.86676305E+00 -2.65613857E-02 -1.78638046E+00  6.86676305E+00 -2.65613857E-02
 -3.10465530E+00  4.58358461E+00 -2.46792185E-02 -3.10465530E+00  4.58358461E+00
 -2.46792185E-02 -3.10465530E+00  4.58358461E+00 -2.46792185E-02 -3.10465530E+00
  4.58358461E+00 -2.46792185E-02 -3.10465530E+00  4.58358461E+00 -2.46792185E-02
 -3.10465530E+00  4.58358461E+00 -2.46792185E-02 -2.82568826E+00  5.01222491E-01
 -2.25400485E-02 -2.82568826E+00  5.01222491E-01 -2.25400485E-02 -2.82568826E+00
  5.01222491E-01 -2.25400485E-02  1.88809561E+00  5.00852105E-01 -2.09054354E-02
  1.88809561E+00  5.00852105E-01 -2.09054354E-02  1.88809561E+00  5.00852105E-01
 -2.09054354E-02  4.24592580E+00  4.58331060E+00 -2.21923389E-02  4.24592580E+00
  4.58331060E+00 -2.21923389E-02  4.24592580E+00  4.58331060E+00 -2.21923389E-02
  1.88918409E+00  8.66619995E+00 -2.57677007E-02  1.88918409E+00  8.66619995E+00
 -2.57677007E-02  1.88918409E+00  8.66619995E+00 -2.57677007E-02 -2.82596038E+00
  8.66631334E+00 -2.83622947E-02 -2.82596038E+00  8.66631334E+00 -2.83622947E-02
 -2.82596038E+00  8.66631334E+00 -2.83622947E-02 -5.18260570E+00  4.58393043E+00
 -2.50193692E-02 -5.18260570E+00  4.58393043E+00 -2.50193692E-02 -5.18260570E+00
  4.58393043E+00 -2.50193692E-02
Num ILSW                                   I              100
ILSW                                       I   N=         100
           0           0           0           0           2           1
           0           0           0           0           0          -1
           5           0           0           0           0           0
           0           0           0           0           0           0
           1           1           0           0           0           0
           0           0      100000           0          -1           0
           0           0           0           0           0           0
           0           0           0           1           0           0
           0 -2000000000           1           0           0           0
           0           0           4          52           0           0
           0           0           0           0           0           0
           0           0           0          12           0           1
           0           0           0           0           0           0
           0           0           0           0           0           0
           0           0           0           0           0           0
           0           0           0           0           0           0
           0           0           0           0
Num RLSW                                   I               52
RLSW                                       R   N=          52
  1.00000000E+00  1.00000000E+00  1.00000000E+00  1.00000000E+00  1.00000000E+00
  0.00000000E+00  0.00000000E+00  1.00000000E+00  0.00000000E+00  0.00000000E+00
  0.00000000E+00  0.00000000E+00  1.00000000E+00  0.00000000E+00  0.00000000E+00
  0.00000000E+00  0.00000000E+00  1.00000000E+00  0.00000000E+00  0.00000000E+00
  0.00000000E+00  0.00000000E+00  1.00000000E+00  0.00000000E+00  0.00000000E+00
  0.00000000E+00  0.00000000E+00  1.00000000E+00  0.00000000E+00  0.00000000E+00
  0.00000000E+00  0.00000000E+00  1.00000000E+00  0.00000000E+00  0.00000000E+00
  0.00000000E+00  0.00000000E+00  0.00000000E+00  1.00000000E+00  1.00000000E+00
  0.00000000E+00  1.00000000E+00  0.00000000E+00  0.00000000E+00  0.00000000E+00
  0.00000000E+00  0.00000000E+00  0.00000000E+00  0.00000000E+00  0.00000000E+00
  0.00000000E+00  0.00000000E+00
MxBond                                     I                3
NBond                                      I   N=          12
           3           3           3           3           3           3
           1           1           1           1           1           1
IBond                                      I   N=          36
           2           6           7           1           3           8
           2           4           9           3           5          10
           4           6          11           1           5          12
           1           0           0           2           0           0
           3           0           0           4           0           0
           5           0           0           6           0           0
RBond                                      R   N=          36
  1.50000000E+00  1.50000000E+00  1.00000000E+00  1.50000000E+00  1.50000000E+00
  1.00000000E+00  1.50000000E+00  1.50000000E+00  1.00000000E+00  1.50000000E+00
  1.50000000E+00  1.00000000E+00  1.50000000E+00  1.50000000E+00  1.00000000E+00
  1.50000000E+00  1.50000000E+00  1.00000000E+00  1.00000000E+00  0.00000000E+00
  0.00000000E+00  1.00000000E+00  0.00000000E+00  0.00000000E+00  1.00000000E+00
  0.00000000E+00  0.00000000E+00  1.00000000E+00  0.00000000E+00  0.00000000E+00
  1.00000000E+00  0.00000000E+00  0.00000000E+00  1.00000000E+00  0.00000000E+00
  0.00000000E+00
Virial Ratio                               R      2.001001489293040E+00
SCF Energy                                 R     -2.307237304625356E+02
Total Energy                               R     -2.307237304625356E+02
S**2                                       R      4.346076433328747E-01
S**2 after annihilation                    R      2.953711999131780E-01
RMS Density                                R      6.844849135956822E-09
Job Status                                 I                1
Nuclear derivative order                   I                0
External E-field                           R   N=          35
  0.00000000E+00  0.00000000E+00  0.00000000E+00  0.00000000E+00  0.00000000E+00
  0.00000000E+00  0.00000000E+00  0.00000000E+00  0.00000000E+00  0.00000000E+00
  0.00000000E+00  0.00000000E+00  0.00000000E+00  0.00000000E+00  0.00000000E+00
  0.00000000E+00  0.00000000E+00  0.00000000E+00  0.00000000E+00  0.00000000E+00
  0.00000000E+00  0.00000000E+00  0.00000000E+00  0.00000000E+00  0.00000000E+00
  0.00000000E+00  0.00000000E+00  0.00000000E+00  0.00000000E+00  0.00000000E+00
  0.00000000E+00  0.00000000E+00  0.00000000E+00  0.00000000E+00  0.00000000E+00
IOpCl                                      I                0
IROHF                                      I                0
Alpha Orbital Energies                     R   N=         114
  2.00000000E+00  2.00000000E+00  2.00000000E+00  2.00000000E+00  2.00000000E+00
  2.00000000E+00  2.00000000E+00  2.00000000E+00  2.00000000E+00  2.00000000E+00
  2.00000000E+00  2.00000000E+00  2.00000000E+00  2.00000000E+00  2.00000000E+00
  2.00000000E+00  2.00000000E+00  2.00000000E+00  1.96105826E+00  1.90180508E+00
  1.90175238E+00  9.95843678E-02  9.95302178E-02  3.62696917E-02  0.00000000E+00
  0.00000000E+00  0.00000000E+00  0.00000000E+00  0.00000000E+00  0.00000000E+00
  0.00000000E+00  0.00000000E+00  0.00000000E+00  0.00000000E+00  0.00000000E+00
  0.00000000E+00  0.00000000E+00  0.00000000E+00  0.00000000E+00  0.00000000E+00
  0.00000000E+00  0.00000000E+00  0.00000000E+00  0.00000000E+00  0.00000000E+00
  0.00000000E+00  0.00000000E+00  0.00000000E+00  0.00000000E+00  0.00000000E+00
  0.00000000E+00  0.00000000E+00  0.00000000E+00  0.00000000E+00  0.00000000E+00
  0.00000000E+00  0.00000000E+00  0.00000000E+00  0.00000000E+00  0.00000000E+00
  0.00000000E+00  0.00000000E+00  0.00000000E+00  0.00000000E+00  0.00000000E+00
  0.00000000E+00  0.00000000E+00  0.00000000E+00  0.00000000E+00  0.00000000E+00
  0.00000000E+00  0.00000000E+00  0.00000000E+00  0.00000000E+00  0.00000000E+00
  0.00000000E+00  0.00000000E+00  0.00000000E+00  0.00000000E+00  0.00000000E+00
  0.00000000E+00  0.00000000E+00  0.00000000E+00  0.00000000E+00  0.00000000E+00
  0.00000000E+00  0.00000000E+00  0.00000000E+00  0.00000000E+00  0.00000000E+00
  0.00000000E+00  0.00000000E+00  0.00000000E+00  0.00000000E+00  0.00000000E+00
  0.00000000E+00  0.00000000E+00  0.00000000E+00  0.00000000E+00  0.00000000E+00
  0.00000000E+00  0.00000000E+00  0.00000000E+00  0.00000000E+00  0.00000000E+00
  0.00000000E+00  0.00000000E+00  0.00000000E+00  0.00000000E+00  0.00000000E+00
  0.00000000E+00  0.00000000E+00  0.00000000E+00  0.00000000E+00
Alpha MO coefficients                      R   N=       12996
  3.93475628E-01  1.40346625E-03 -1.72770813E-03 -4.03535215E-05 -6.99721168E-05
  2.46228161E-07  1.14910477E-04  1.95745664E-04  4.59229817E-07 -5.48127901E-05
  1.75518445E-07 -5.38993508E-08 -4.44336384E-05  7.67934200E-05  3.99116371E-01
  1.42618558E-03 -1.75536009E-03  3.94085691E-05 -7.09441095E-05  1.01014888E-06
 -8.16714692E-05  2.21899494E-04 -7.61874747E-07 -5.22407215E-05  1.46388271E-07
 -3.06500100E-07 -4.47100415E-05 -7.70345476E-05  4.18161649E-01  1.51062603E-03
 -1.92076601E-03  8.20568022E-05 -1.44505396E-06  4.85718206E-07 -2.12711750E-04
  4.07119773E-05  1.10674674E-06 -5.57606220E-05 -1.16117311E-07 -8.19551629E-08
  9.18769117E-05  1.73485432E-06  4.27121528E-01  1.54993090E-03 -1.99194238E-03
  4.11777766E-05  7.14762947E-05  4.56785013E-07 -1.00721372E-04 -1.80505298E-04
 -2.17616383E-07 -5.71549208E-05 -2.79607130E-08  5.64555976E-08 -4.55893331E-05
  8.10052723E-05  4.15235345E-01  1.49722051E-03 -1.89351225E-03 -4.23046783E-05
  7.01122928E-05 -7.52492781E-09  1.45381769E-04 -1.66267001E-04  1.19729824E-07
 -5.45210012E-05  1.71218889E-07 -1.09032840E-07 -4.59998831E-05 -7.86361144E-05
  3.98700796E-01  1.42492244E-03 -1.75552555E-03 -8.11368929E-05 -9.91323968E-07
 -1.25324632E-07  2.31430779E-04  3.60504441E-05  7.27364412E-08 -5.31715037E-05
  7.29921762E-08  2.86169052E-08  8.93484920E-05 -3.21896582E-07 -1.35968561E-04
  6.60216554E-04 -7.03255022E-05 -1.21742156E-04  4.96778463E-08 -1.36014515E-04
  6.68672251E-04  7.07244199E-05 -1.23001662E-04  3.04549601E-07 -1.42439839E-04
  6.85939519E-04  1.50951038E-04 -5.39429048E-07  4.95259310E-08 -1.45169726E-04
  6.94895328E-04  7.74003676E-05  1.34396687E-04  4.87013665E-08 -1.40984543E-04
  6.83482715E-04 -7.49077905E-05  1.29050173E-04 -1.03367578E-07 -1.36466166E-04
  6.67728748E-04 -1.42144258E-04 -2.62454981E-07 -5.83137003E-08  5.73437727E-01
  2.50236160E-03 -4.58946866E-03 -5.68888615E-06 -3.20405853E-05 -9.64410665E-08
 -4.86652141E-04 -1.81169142E-04  7.89796789E-08 -5.36784641E-05  8.85962917E-08
 -1.22601485E-07 -3.24365251E-05  6.32688578E-05  1.88942267E-01  8.19303835E-04
 -1.48510098E-03  4.74906828E-05  1.45687825E-05  4.03110089E-07 -1.21281704E-03
 -8.42147936E-04  2.40728064E-07 -1.96173854E-05  1.28299310E-07 -4.32868962E-08
 -2.82580946E-05 -1.18721987E-05 -3.75629188E-01 -1.65417356E-03  3.06510877E-03
 -1.70636948E-05  3.81820964E-05  2.72113283E-07 -2.80700643E-04 -1.14822181E-03
  2.58364307E-07  3.34237402E-05 -1.11077695E-07 -1.05556806E-07 -4.49551432E-05
 -1.64879782E-05 -5.58168396E-01 -2.45762998E-03  4.58194955E-03 -3.50125880E-06
 -2.79382757E-05 -4.18638381E-07 -5.08066805E-04 -2.12221905E-04  2.62519909E-07
  5.76446575E-05  1.16685113E-09 -9.19870958E-08  2.84579913E-05 -6.05783823E-05
 -1.58639947E-01 -7.01670122E-04  1.30112613E-03  4.59122857E-05  1.90670596E-05
 -5.26860325E-07 -1.22229541E-03 -8.41517378E-04 -2.32140832E-07  1.11919197E-05
 -3.09173249E-08  1.73345386E-07  2.58623522E-05  5.23716630E-06  4.01992568E-01
  1.75137646E-03 -3.19829830E-03 -2.20366450E-05  3.75027810E-05 -5.32981554E-07
 -2.73537327E-04 -1.13738854E-03  7.04979718E-07 -3.87261520E-05 -1.48820821E-08
 -5.51304333E-08  4.94066251E-05  1.32780751E-05 -1.62415619E-04  5.83971597E-04
 -1.22355853E-04 -2.16481948E-04  1.15526418E-07 -5.48185394E-05  1.96751024E-04
  5.04003908E-05 -6.57054131E-05  1.12401260E-07  1.05028155E-04 -3.70908791E-04
 -1.64419148E-04  8.67500190E-06 -6.32193051E-08  1.59470664E-04 -5.47353813E-04
 -1.20697309E-04 -2.14540771E-04 -3.67859930E-08  4.23415647E-05 -1.54818054E-04
  4.38226043E-05 -5.41501923E-05  4.52049758E-08 -1.14090284E-04  4.11869820E-04
 -1.74316402E-04  8.16991802E-06 -7.52757824E-08  1.24955937E-01  5.46309180E-04
 -1.00655693E-03 -4.57985274E-05  1.89465450E-05  8.58356532E-07  1.25745300E-03
 -8.29747504E-04  2.00650510E-06 -1.16584035E-05  1.88483584E-07  1.33920313E-07
 -2.35737433E-05  5.14838016E-06  5.47673571E-01  2.39534828E-03 -4.39427149E-03
 -1.44711164E-07 -3.22934522E-05  1.42947816E-06  6.02428976E-04 -9.34373778E-05
 -5.61070679E-07 -4.82340209E-05  1.03023325E-07 -3.09743647E-07 -2.75764994E-05
 -6.06687558E-05  4.36658595E-01  1.91459647E-03 -3.55274622E-03  2.20247402E-05
  3.43507501E-05  2.60528286E-07  3.33987816E-04 -1.04052951E-03  1.97350037E-06
 -4.80201847E-05 -1.05960944E-08 -2.02655897E-07  5.26139579E-05 -1.23968859E-05
 -1.24919925E-01 -5.49685855E-04  1.02965539E-03 -4.69498623E-05  2.01579480E-05
 -1.07799576E-08  1.26486462E-03 -8.47614786E-04  3.09441679E-07  1.44102275E-05
  4.60819141E-09  3.91013879E-08  2.54583316E-05 -2.00509117E-06 -5.53323157E-01
 -2.42713202E-03  4.48754570E-03  8.24756432E-07 -3.09371420E-05 -3.40058929E-08
  6.05554078E-04 -1.25370911E-04  8.69701315E-07  5.55815736E-05 -1.53201765E-07
  8.39355093E-08  2.84996466E-05  6.03380174E-05 -4.19453763E-01 -1.83760838E-03
  3.38402460E-03  2.08263835E-05  3.44095686E-05  5.74504190E-07  2.99325679E-04
 -1.04593367E-03  2.03004407E-07  3.63559429E-05 -3.73350424E-08 -8.10230960E-08
 -5.16326318E-05  1.41111263E-05 -3.57760626E-05  1.26472240E-04 -3.66783925E-05
 -4.17023117E-05 -7.02709697E-09 -1.53101586E-04  5.54512580E-04  1.15726650E-04
 -2.07155135E-04  4.44001285E-07 -1.26117050E-04  4.33818751E-04  1.92340671E-04
  7.39580903E-06  4.41895289E-08  3.60559187E-05 -1.21825701E-04 -3.73558775E-05
 -4.23204965E-05  5.96775631E-08  1.57484196E-04 -5.51372093E-04  1.18272122E-04
 -2.11804562E-04  1.25595374E-07  1.17452770E-04 -4.22311611E-04  1.82030286E-04
  7.73802454E-06  1.18709099E-07  5.56901610E-01  2.67198939E-03 -6.33010849E-03
 -1.98900310E-05 -4.20577946E-06 -1.17433834E-07 -6.10711335E-04 -1.38514237E-03
  7.02691754E-07 -4.60310472E-04  7.88353999E-08 -4.98065661E-07 -4.38425030E-05
  1.32052087E-05 -1.58438566E-01 -7.56349111E-04  1.74491210E-03  5.44476967E-05
  3.65444943E-05 -1.65979745E-07 -8.05447559E-04 -1.99102524E-06 -9.02659737E-08
  1.30460123E-04  1.34336960E-07  2.37269081E-07 -1.13379028E-04  7.49045886E-05
 -4.03993255E-01 -1.94728981E-03  4.74953865E-03 -8.89472173E-06 -4.94539048E-05
  4.36648543E-07 -1.17559896E-03  5.18113987E-04 -9.84126151E-07  3.44432062E-04
 -4.91396629E-07  6.16174357E-07 -2.60531507E-05  1.04332994E-04  5.70641034E-01
  2.75335521E-03 -6.70514871E-03  1.84884609E-05  3.41497279E-06  6.84316329E-07
  7.00048422E-04  1.51163568E-03 -6.56779460E-07 -4.89689597E-04  3.66073114E-07
 -3.98758976E-07 -4.40555740E-05  1.61762804E-05 -1.90423784E-01 -9.19518173E-04
  2.27121061E-03 -5.43638780E-05 -3.58136092E-05  4.95589028E-07  8.76840110E-04
 -1.51669401E-04  7.50230958E-07  1.61787930E-04 -2.90099405E-07  6.27034651E-08
 -1.10914478E-04  7.97966818E-05 -3.80271263E-01 -1.82248826E-03  4.29490451E-03
  9.62718360E-06  5.07438390E-05  3.09514074E-07  1.01444289E-03 -5.47194622E-04
  3.01958797E-07  3.14101915E-04 -7.32274551E-08  2.18161375E-07 -2.25499402E-05
  1.05294634E-04 -3.20791705E-04  2.22130844E-04 -1.93035755E-04 -3.29017606E-04