HF file generated by AutoMR of MOKIT
Stability RHF                                                         CC-pVTZ
Number of atoms                            I               12
Info1-9                                    I   N=           9
          22          21           0           0           0         110
           7           1           2
Full Title                                 C   N=           3
HF file generated by AutoMR of MOKIT
Route                                      C   N=           8
#p scf(xqc,maxcycle=512) nosymm int(nobasistransform) UHF/CC
-PVTZ guess=mix stable=opt 5D 7F
Charge                                     I                0
Multiplicity                               I                1
Number of electrons                        I               42
Number of alpha electrons                  I               21
Number of beta electrons                   I               21
Number of basis functions                  I              264
Number of independent functions            I              264
Number of point charges in /Mol/           I                0
Number of translation vectors              I                0
Atomic numbers                             I   N=          12
           6           6           6           6           6           6
           1           1           1           1           1           1
Nuclear charges                            R   N=          12
  6.00000000E+00  6.00000000E+00  6.00000000E+00  6.00000000E+00  6.00000000E+00
  6.00000000E+00  1.00000000E+00  1.00000000E+00  1.00000000E+00  1.00000000E+00
  1.00000000E+00  1.00000000E+00
Current cartesian coordinates              R   N=          36
 -5.56135585E+00  7.37730900E-01  0.00000000E+00 -2.92488555E+00  7.37730900E-01
  0.00000000E+00 -1.60672977E+00  3.02004952E+00  0.00000000E+00 -2.92510476E+00
  5.30380055E+00 -2.26578162E-03 -5.56094200E+00  5.30365315E+00 -3.17096044E-03
 -6.87921684E+00  3.02047470E+00 -1.28879322E-03 -6.60024980E+00 -1.06188741E+00
  8.50376756E-04 -1.88646593E+00 -1.06225780E+00  2.48498985E-03  4.71364252E-01
  3.02020069E+00  1.19808636E-03 -1.88537745E+00  7.10309005E+00 -2.37727546E-03
 -6.60052192E+00  7.10320343E+00 -4.97186943E-03 -8.95716724E+00  3.02082052E+00
 -1.62894392E-03
Number of symbols in /Mol/                 I                0
Force Field                                I                0
Atom Types                                 C   N=          12



Int Atom Types                             I   N=          12
           0           0           0           0           0           0
           0           0           0           0           0           0
MM charges                                 R   N=          12
  0.00000000E+00  0.00000000E+00  0.00000000E+00  0.00000000E+00  0.00000000E+00
  0.00000000E+00  0.00000000E+00  0.00000000E+00  0.00000000E+00  0.00000000E+00
  0.00000000E+00  0.00000000E+00
Integer atomic weights                     I   N=          12
          12          12          12          12          12          12
           1           1           1           1           1           1
Real atomic weights                        R   N=          12
  1.20000000E+01  1.20000000E+01  1.20000000E+01  1.20000000E+01  1.20000000E+01
  1.20000000E+01  1.00782504E+00  1.00782504E+00  1.00782504E+00  1.00782504E+00
  1.00782504E+00  1.00782504E+00
Atom fragment info                         I   N=          12
           0           0           0           0           0           0
           0           0           0           0           0           0
Atom residue num                           I   N=          12
           0           0           0           0           0           0
           0           0           0           0           0           0
Nuclear spins                              I   N=          12
           0           0           0           0           0           0
           1           1           1           1           1           1
Nuclear ZEff                               R   N=          12
 -3.60000000E+00 -3.60000000E+00 -3.60000000E+00 -3.60000000E+00 -3.60000000E+00
 -3.60000000E+00 -1.00000000E+00 -1.00000000E+00 -1.00000000E+00 -1.00000000E+00
 -1.00000000E+00 -1.00000000E+00
Nuclear ZNuc                               R   N=          12
  6.00000000E+00  6.00000000E+00  6.00000000E+00  6.00000000E+00  6.00000000E+00
  6.00000000E+00  1.00000000E+00  1.00000000E+00  1.00000000E+00  1.00000000E+00
  1.00000000E+00  1.00000000E+00
Nuclear QMom                               R   N=          12
  0.00000000E+00  0.00000000E+00  0.00000000E+00  0.00000000E+00  0.00000000E+00
  0.00000000E+00  0.00000000E+00  0.00000000E+00  0.00000000E+00  0.00000000E+00
  0.00000000E+00  0.00000000E+00
Nuclear GFac                               R   N=          12
  0.00000000E+00  0.00000000E+00  0.00000000E+00  0.00000000E+00  0.00000000E+00
  0.00000000E+00  2.79284600E+00  2.79284600E+00  2.79284600E+00  2.79284600E+00
  2.79284600E+00  2.79284600E+00
MicOpt                                     I   N=          12
          -1          -1          -1          -1          -1          -1
          -1          -1          -1          -1          -1          -1
Number of residues                         I                0
Number of secondary structures             I                0
Number of contracted shells                I               96
Number of primitive shells                 I              204
Pure/Cartesian d shells                    I                0
Pure/Cartesian f shells                    I                0
Highest angular momentum                   I                3
Largest degree of contraction              I                8
Shell types                                I   N=          96
           0           0           0           0           1           1
           1          -2          -2          -3           0           0
           0           0           1           1           1          -2
          -2          -3           0           0           0           0
           1           1           1          -2          -2          -3
           0           0           0           0           1           1
           1          -2          -2          -3           0           0
           0           0           1           1           1          -2
          -2          -3           0           0           0           0
           1           1           1          -2          -2          -3
           0           0           0           1           1          -2
           0           0           0           1           1          -2
           0           0           0           1           1          -2
           0           0           0           1           1          -2
           0           0           0           1           1          -2
           0           0           0           1           1          -2
Number of primitives per shell             I   N=          96
           8           8           1           1           3           1
           1           1           1           1           8           8
           1           1           3           1           1           1
           1           1           8           8           1           1
           3           1           1           1           1           1
           8           8           1           1           3           1
           1           1           1           1           8           8
           1           1           3           1           1           1
           1           1           8           8           1           1
           3           1           1           1           1           1
           3           1           1           1           1           1
           3           1           1           1           1           1
           3           1           1           1           1           1
           3           1           1           1           1           1
           3           1           1           1           1           1
           3           1           1           1           1           1
Shell to atom map                          I   N=          96
           1           1           1           1           1           1
           1           1           1           1           2           2
           2           2           2           2           2           2
           2           2           3           3           3           3
           3           3           3           3           3           3
           4           4           4           4           4           4
           4           4           4           4           5           5
           5           5           5           5           5           5
           5           5           6           6           6           6
           6           6           6           6           6           6
           7           7           7           7           7           7
           8           8           8           8           8           8
           9           9           9           9           9           9
          10          10          10          10          10          10
          11          11          11          11          11          11
          12          12          12          12          12          12
Primitive exponents                        R   N=         204
  8.23600000E+03  1.23500000E+03  2.80800000E+02  7.92700000E+01  2.55900000E+01
  8.99700000E+00  3.31900000E+00  3.64300000E-01  8.23600000E+03  1.23500000E+03
  2.80800000E+02  7.92700000E+01  2.55900000E+01  8.99700000E+00  3.31900000E+00
  3.64300000E-01  9.05900000E-01  1.28500000E-01  1.87100000E+01  4.13300000E+00
  1.20000000E+00  3.82700000E-01  1.20900000E-01  1.09700000E+00  3.18000000E-01
  7.61000000E-01  8.23600000E+03  1.23500000E+03  2.80800000E+02  7.92700000E+01
  2.55900000E+01  8.99700000E+00  3.31900000E+00  3.64300000E-01  8.23600000E+03
  1.23500000E+03  2.80800000E+02  7.92700000E+01  2.55900000E+01  8.99700000E+00
  3.31900000E+00  3.64300000E-01  9.05900000E-01  1.28500000E-01  1.87100000E+01
  4.13300000E+00  1.20000000E+00  3.82700000E-01  1.20900000E-01  1.09700000E+00
  3.18000000E-01  7.61000000E-01  8.23600000E+03  1.23500000E+03  2.80800000E+02
  7.92700000E+01  2.55900000E+01  8.99700000E+00  3.31900000E+00  3.64300000E-01
  8.23600000E+03  1.23500000E+03  2.80800000E+02  7.92700000E+01  2.55900000E+01
  8.99700000E+00  3.31900000E+00  3.64300000E-01  9.05900000E-01  1.28500000E-01
  1.87100000E+01  4.13300000E+00  1.20000000E+00  3.82700000E-01  1.20900000E-01
  1.09700000E+00  3.18000000E-01  7.61000000E-01  8.23600000E+03  1.23500000E+03
  2.80800000E+02  7.92700000E+01  2.55900000E+01  8.99700000E+00  3.31900000E+00
  3.64300000E-01  8.23600000E+03  1.23500000E+03  2.80800000E+02  7.92700000E+01
  2.55900000E+01  8.99700000E+00  3.31900000E+00  3.64300000E-01  9.05900000E-01
  1.28500000E-01  1.87100000E+01  4.13300000E+00  1.20000000E+00  3.82700000E-01
  1.20900000E-01  1.09700000E+00  3.18000000E-01  7.61000000E-01  8.23600000E+03
  1.23500000E+03  2.80800000E+02  7.92700000E+01  2.55900000E+01  8.99700000E+00
  3.31900000E+00  3.64300000E-01  8.23600000E+03  1.23500000E+03  2.80800000E+02
  7.92700000E+01  2.55900000E+01  8.99700000E+00  3.31900000E+00  3.64300000E-01
  9.05900000E-01  1.28500000E-01  1.87100000E+01  4.13300000E+00  1.20000000E+00
  3.82700000E-01  1.20900000E-01  1.09700000E+00  3.18000000E-01  7.61000000E-01
  8.23600000E+03  1.23500000E+03  2.80800000E+02  7.92700000E+01  2.55900000E+01
  8.99700000E+00  3.31900000E+00  3.64300000E-01  8.23600000E+03  1.23500000E+03
  2.80800000E+02  7.92700000E+01  2.55900000E+01  8.99700000E+00  3.31900000E+00
  3.64300000E-01  9.05900000E-01  1.28500000E-01  1.87100000E+01  4.13300000E+00
  1.20000000E+00  3.82700000E-01  1.20900000E-01  1.09700000E+00  3.18000000E-01
  7.61000000E-01  3.38700000E+01  5.09500000E+00  1.15900000E+00  3.25800000E-01
  1.02700000E-01  1.40700000E+00  3.88000000E-01  1.05700000E+00  3.38700000E+01
  5.09500000E+00  1.15900000E+00  3.25800000E-01  1.02700000E-01  1.40700000E+00
  3.88000000E-01  1.05700000E+00  3.38700000E+01  5.09500000E+00  1.15900000E+00
  3.25800000E-01  1.02700000E-01  1.40700000E+00  3.88000000E-01  1.05700000E+00
  3.38700000E+01  5.09500000E+00  1.15900000E+00  3.25800000E-01  1.02700000E-01
  1.40700000E+00  3.88000000E-01  1.05700000E+00  3.38700000E+01  5.09500000E+00
  1.15900000E+00  3.25800000E-01  1.02700000E-01  1.40700000E+00  3.88000000E-01
  1.05700000E+00  3.38700000E+01  5.09500000E+00  1.15900000E+00  3.25800000E-01
  1.02700000E-01  1.40700000E+00  3.88000000E-01  1.05700000E+00
Contraction coefficients                   R   N=         204
  5.42430189E-04  4.19642790E-03  2.15409141E-02  8.36149496E-02  2.39871619E-01
  4.43751820E-01  3.53579696E-01 -9.17636608E-03 -1.96392234E-04 -1.52595027E-03
 -7.89044903E-03 -3.15148705E-02 -9.69100083E-02 -2.20541526E-01 -2.96069113E-01
  1.04050343E+00  1.00000000E+00  1.00000000E+00  3.94263872E-02  2.44088985E-01
  8.15492009E-01  1.00000000E+00  1.00000000E+00  1.00000000E+00  1.00000000E+00
  1.00000000E+00  5.42430189E-04  4.19642790E-03  2.15409141E-02  8.36149496E-02
  2.39871619E-01  4.43751820E-01  3.53579696E-01 -9.17636608E-03 -1.96392234E-04
 -1.52595027E-03 -7.89044903E-03 -3.15148705E-02 -9.69100083E-02 -2.20541526E-01
 -2.96069113E-01  1.04050343E+00  1.00000000E+00  1.00000000E+00  3.94263872E-02
  2.44088985E-01  8.15492009E-01  1.00000000E+00  1.00000000E+00  1.00000000E+00
  1.00000000E+00  1.00000000E+00  5.42430189E-04  4.19642790E-03  2.15409141E-02
  8.36149496E-02  2.39871619E-01  4.43751820E-01  3.53579696E-01 -9.17636608E-03
 -1.96392234E-04 -1.52595027E-03 -7.89044903E-03 -3.15148705E-02 -9.69100083E-02
 -2.20541526E-01 -2.96069113E-01  1.04050343E+00  1.00000000E+00  1.00000000E+00
  3.94263872E-02  2.44088985E-01  8.15492009E-01  1.00000000E+00  1.00000000E+00
  1.00000000E+00  1.00000000E+00  1.00000000E+00  5.42430189E-04  4.19642790E-03
  2.15409141E-02  8.36149496E-02  2.39871619E-01  4.43751820E-01  3.53579696E-01
 -9.17636608E-03 -1.96392234E-04 -1.52595027E-03 -7.89044903E-03 -3.15148705E-02
 -9.69100083E-02 -2.20541526E-01 -2.96069113E-01  1.04050343E+00  1.00000000E+00
  1.00000000E+00  3.94263872E-02  2.44088985E-01  8.15492009E-01  1.00000000E+00
  1.00000000E+00  1.00000000E+00  1.00000000E+00  1.00000000E+00  5.42430189E-04
  4.19642790E-03  2.15409141E-02  8.36149496E-02  2.39871619E-01  4.43751820E-01
  3.53579696E-01 -9.17636608E-03 -1.96392234E-04 -1.52595027E-03 -7.89044903E-03
 -3.15148705E-02 -9.69100083E-02 -2.20541526E-01 -2.96069113E-01  1.04050343E+00
  1.00000000E+00  1.00000000E+00  3.94263872E-02  2.44088985E-01  8.15492009E-01
  1.00000000E+00  1.00000000E+00  1.00000000E+00  1.00000000E+00  1.00000000E+00
  5.42430189E-04  4.19642790E-03  2.15409141E-02  8.36149496E-02  2.39871619E-01
  4.43751820E-01  3.53579696E-01 -9.17636608E-03 -1.96392234E-04 -1.52595027E-03
 -7.89044903E-03 -3.15148705E-02 -9.69100083E-02 -2.20541526E-01 -2.96069113E-01
  1.04050343E+00  1.00000000E+00  1.00000000E+00  3.94263872E-02  2.44088985E-01
  8.15492009E-01  1.00000000E+00  1.00000000E+00  1.00000000E+00  1.00000000E+00
  1.00000000E+00  2.54948632E-02  1.90362766E-01  8.52162022E-01  1.00000000E+00
  1.00000000E+00  1.00000000E+00  1.00000000E+00  1.00000000E+00  2.54948632E-02
  1.90362766E-01  8.52162022E-01  1.00000000E+00  1.00000000E+00  1.00000000E+00
  1.00000000E+00  1.00000000E+00  2.54948632E-02  1.90362766E-01  8.52162022E-01
  1.00000000E+00  1.00000000E+00  1.00000000E+00  1.00000000E+00  1.00000000E+00
  2.54948632E-02  1.90362766E-01  8.52162022E-01  1.00000000E+00  1.00000000E+00
  1.00000000E+00  1.00000000E+00  1.00000000E+00  2.54948632E-02  1.90362766E-01
  8.52162022E-01  1.00000000E+00  1.00000000E+00  1.00000000E+00  1.00000000E+00
  1.00000000E+00  2.54948632E-02  1.90362766E-01  8.52162022E-01  1.00000000E+00
  1.00000000E+00  1.00000000E+00  1.00000000E+00  1.00000000E+00
Coordinates of each shell                  R   N=         288
 -5.56135585E+00  7.37730900E-01  0.00000000E+00 -5.56135585E+00  7.37730900E-01
  0.00000000E+00 -5.56135585E+00  7.37730900E-01  0.00000000E+00 -5.56135585E+00
  7.37730900E-01  0.00000000E+00 -5.56135585E+00  7.37730900E-01  0.00000000E+00
 -5.56135585E+00  7.37730900E-01  0.00000000E+00 -5.56135585E+00  7.37730900E-01
  0.00000000E+00 -5.56135585E+00  7.37730900E-01  0.00000000E+00 -5.56135585E+00
  7.37730900E-01  0.00000000E+00 -5.56135585E+00  7.37730900E-01  0.00000000E+00
 -2.92488555E+00  7.37730900E-01  0.00000000E+00 -2.92488555E+00  7.37730900E-01
  0.00000000E+00 -2.92488555E+00  7.37730900E-01  0.00000000E+00 -2.92488555E+00
  7.37730900E-01  0.00000000E+00 -2.92488555E+00  7.37730900E-01  0.00000000E+00
 -2.92488555E+00  7.37730900E-01  0.00000000E+00 -2.92488555E+00  7.37730900E-01
  0.00000000E+00 -2.92488555E+00  7.37730900E-01  0.00000000E+00 -2.92488555E+00
  7.37730900E-01  0.00000000E+00 -2.92488555E+00  7.37730900E-01  0.00000000E+00
 -1.60672977E+00  3.02004952E+00  0.00000000E+00 -1.60672977E+00  3.02004952E+00
  0.00000000E+00 -1.60672977E+00  3.02004952E+00  0.00000000E+00 -1.60672977E+00
  3.02004952E+00  0.00000000E+00 -1.60672977E+00  3.02004952E+00  0.00000000E+00
 -1.60672977E+00  3.02004952E+00  0.00000000E+00 -1.60672977E+00  3.02004952E+00
  0.00000000E+00 -1.60672977E+00  3.02004952E+00  0.00000000E+00 -1.60672977E+00
  3.02004952E+00  0.00000000E+00 -1.60672977E+00  3.02004952E+00  0.00000000E+00
 -2.92510476E+00  5.30380055E+00 -2.26578162E-03 -2.92510476E+00  5.30380055E+00
 -2.26578162E-03 -2.92510476E+00  5.30380055E+00 -2.26578162E-03 -2.92510476E+00
  5.30380055E+00 -2.26578162E-03 -2.92510476E+00  5.30380055E+00 -2.26578162E-03
 -2.92510476E+00  5.30380055E+00 -2.26578162E-03 -2.92510476E+00  5.30380055E+00
 -2.26578162E-03 -2.92510476E+00  5.30380055E+00 -2.26578162E-03 -2.92510476E+00
  5.30380055E+00 -2.26578162E-03 -2.92510476E+00  5.30380055E+00 -2.26578162E-03
 -5.56094200E+00  5.30365315E+00 -3.17096044E-03 -5.56094200E+00  5.30365315E+00
 -3.17096044E-03 -5.56094200E+00  5.30365315E+00 -3.17096044E-03 -5.56094200E+00
  5.30365315E+00 -3.17096044E-03 -5.56094200E+00  5.30365315E+00 -3.17096044E-03
 -5.56094200E+00  5.30365315E+00 -3.17096044E-03 -5.56094200E+00  5.30365315E+00
 -3.17096044E-03 -5.56094200E+00  5.30365315E+00 -3.17096044E-03 -5.56094200E+00
  5.30365315E+00 -3.17096044E-03 -5.56094200E+00  5.30365315E+00 -3.17096044E-03
 -6.87921684E+00  3.02047470E+00 -1.28879322E-03 -6.87921684E+00  3.02047470E+00
 -1.28879322E-03 -6.87921684E+00  3.02047470E+00 -1.28879322E-03 -6.87921684E+00
  3.02047470E+00 -1.28879322E-03 -6.87921684E+00  3.02047470E+00 -1.28879322E-03
 -6.87921684E+00  3.02047470E+00 -1.28879322E-03 -6.87921684E+00  3.02047470E+00
 -1.28879322E-03 -6.87921684E+00  3.02047470E+00 -1.28879322E-03 -6.87921684E+00
  3.02047470E+00 -1.28879322E-03 -6.87921684E+00  3.02047470E+00 -1.28879322E-03
 -6.60024980E+00 -1.06188741E+00  8.50376756E-04 -6.60024980E+00 -1.06188741E+00
  8.50376756E-04 -6.60024980E+00 -1.06188741E+00  8.50376756E-04 -6.60024980E+00
 -1.06188741E+00  8.50376756E-04 -6.60024980E+00 -1.06188741E+00  8.50376756E-04
 -6.60024980E+00 -1.06188741E+00  8.50376756E-04 -1.88646593E+00 -1.06225780E+00
  2.48498985E-03 -1.88646593E+00 -1.06225780E+00  2.48498985E-03 -1.88646593E+00
 -1.06225780E+00  2.48498985E-03 -1.88646593E+00 -1.06225780E+00  2.48498985E-03
 -1.88646593E+00 -1.06225780E+00  2.48498985E-03 -1.88646593E+00 -1.06225780E+00
  2.48498985E-03  4.71364252E-01  3.02020069E+00  1.19808636E-03  4.71364252E-01
  3.02020069E+00  1.19808636E-03  4.71364252E-01  3.02020069E+00  1.19808636E-03
  4.71364252E-01  3.02020069E+00  1.19808636E-03  4.71364252E-01  3.02020069E+00
  1.19808636E-03  4.71364252E-01  3.02020069E+00  1.19808636E-03 -1.88537745E+00
  7.10309005E+00 -2.37727546E-03 -1.88537745E+00  7.10309005E+00 -2.37727546E-03
 -1.88537745E+00  7.10309005E+00 -2.37727546E-03 -1.88537745E+00  7.10309005E+00
 -2.37727546E-03 -1.88537745E+00  7.10309005E+00 -2.37727546E-03 -1.88537745E+00
  7.10309005E+00 -2.37727546E-03 -6.60052192E+00  7.10320343E+00 -4.97186943E-03
 -6.60052192E+00  7.10320343E+00 -4.97186943E-03 -6.60052192E+00  7.10320343E+00
 -4.97186943E-03 -6.60052192E+00  7.10320343E+00 -4.97186943E-03 -6.60052192E+00
  7.10320343E+00 -4.97186943E-03 -6.60052192E+00  7.10320343E+00 -4.97186943E-03
 -8.95716724E+00  3.02082052E+00 -1.62894392E-03 -8.95716724E+00  3.02082052E+00
 -1.62894392E-03 -8.95716724E+00  3.02082052E+00 -1.62894392E-03 -8.95716724E+00
  3.02082052E+00 -1.62894392E-03 -8.95716724E+00  3.02082052E+00 -1.62894392E-03
 -8.95716724E+00  3.02082052E+00 -1.62894392E-03
Num ILSW                                   I              100
ILSW                                       I   N=         100
           0           0           0           0           2           1
           0           0           0           0           0          -1
           5           0           0           0           0           0
           0           0           0           0           0           0
           1           1           0           0           0           0
           0           0      100000           0          -1           0
           0           0           0           0           0           0
           0           0           0           1           0           0
           0 -2000000000           1           0           0           0
           0           0           4          52           0           0
           0           0           0           0           0           0
           0           0           0          12           0           1
           0           0           0           0           0           0
           0           0           0           0           0           0
           0           0           0           0           0           0
           0           0           0           0           0           0
           0           0           0           0
Num RLSW                                   I               52
RLSW                                       R   N=          52
  1.00000000E+00  1.00000000E+00  1.00000000E+00  1.00000000E+00  1.00000000E+00
  0.00000000E+00  0.00000000E+00  1.00000000E+00  0.00000000E+00  0.00000000E+00
  0.00000000E+00  0.00000000E+00  1.00000000E+00  0.00000000E+00  0.00000000E+00
  0.00000000E+00  0.00000000E+00  1.00000000E+00  0.00000000E+00  0.00000000E+00
  0.00000000E+00  0.00000000E+00  1.00000000E+00  0.00000000E+00  0.00000000E+00
  0.00000000E+00  0.00000000E+00  1.00000000E+00  0.00000000E+00  0.00000000E+00
  0.00000000E+00  0.00000000E+00  1.00000000E+00  0.00000000E+00  0.00000000E+00
  0.00000000E+00  0.00000000E+00  0.00000000E+00  1.00000000E+00  1.00000000E+00
  0.00000000E+00  1.00000000E+00  0.00000000E+00  0.00000000E+00  0.00000000E+00
  0.00000000E+00  0.00000000E+00  0.00000000E+00  0.00000000E+00  0.00000000E+00
  0.00000000E+00  0.00000000E+00
MxBond                                     I                3
NBond                                      I   N=          12
           3           3           3           3           3           3
           1           1           1           1           1           1
IBond                                      I   N=          36
           2           6           7           1           3           8
           2           4           9           3           5          10
           4           6          11           1           5          12
           1           0           0           2           0           0
           3           0           0           4           0           0
           5           0           0           6           0           0
RBond                                      R   N=          36
  1.50000000E+00  1.50000000E+00  1.00000000E+00  1.50000000E+00  1.50000000E+00
  1.00000000E+00  1.50000000E+00  1.50000000E+00  1.00000000E+00  1.50000000E+00
  1.50000000E+00  1.00000000E+00  1.50000000E+00  1.50000000E+00  1.00000000E+00
  1.50000000E+00  1.50000000E+00  1.00000000E+00  1.00000000E+00  0.00000000E+00
  0.00000000E+00  1.00000000E+00  0.00000000E+00  0.00000000E+00  1.00000000E+00
  0.00000000E+00  0.00000000E+00  1.00000000E+00  0.00000000E+00  0.00000000E+00
  1.00000000E+00  0.00000000E+00  0.00000000E+00  1.00000000E+00  0.00000000E+00
  0.00000000E+00
Virial Ratio                               R      2.001577749176412E+00
SCF Energy                                 R     -2.307796714042248E+02
Total Energy                               R     -2.307796714042248E+02
S**2                                       R      4.374984802789648E-01
S**2 after annihilation                    R      3.002469349343240E-01
RMS Density                                R      9.828115883611487E-09
Job Status                                 I                1
Nuclear derivative order                   I                0
External E-field                           R   N=          35
  0.00000000E+00  0.00000000E+00  0.00000000E+00  0.00000000E+00  0.00000000E+00
  0.00000000E+00  0.00000000E+00  0.00000000E+00  0.00000000E+00  0.00000000E+00
  0.00000000E+00  0.00000000E+00  0.00000000E+00  0.00000000E+00  0.00000000E+00
  0.00000000E+00  0.00000000E+00  0.00000000E+00  0.00000000E+00  0.00000000E+00
  0.00000000E+00  0.00000000E+00  0.00000000E+00  0.00000000E+00  0.00000000E+00
  0.00000000E+00  0.00000000E+00  0.00000000E+00  0.00000000E+00  0.00000000E+00
  0.00000000E+00  0.00000000E+00  0.00000000E+00  0.00000000E+00  0.00000000E+00
IOpCl                                      I                0
IROHF                                      I                0
Alpha Orbital Energies                     R   N=         264
  2.00000000E+00  2.00000000E+00  2.00000000E+00  2.00000000E+00  2.00000000E+00
  2.00000000E+00  2.00000000E+00  2.00000000E+00  2.00000000E+00  2.00000000E+00
  2.00000000E+00  2.00000000E+00  2.00000000E+00  2.00000000E+00  2.00000000E+00
  2.00000000E+00  2.00000000E+00  2.00000000E+00  1.96120026E+00  1.90257325E+00
  1.90252117E+00  9.88576125E-02  9.88041256E-02  3.60435816E-02  0.00000000E+00
  0.00000000E+00  0.00000000E+00  0.00000000E+00  0.00000000E+00  0.00000000E+00
  0.00000000E+00  0.00000000E+00  0.00000000E+00  0.00000000E+00  0.00000000E+00
  0.00000000E+00  0.00000000E+00  0.00000000E+00  0.00000000E+00  0.00000000E+00
  0.00000000E+00  0.00000000E+00  0.00000000E+00  0.00000000E+00  0.00000000E+00
  0.00000000E+00  0.00000000E+00  0.00000000E+00  0.00000000E+00  0.00000000E+00
  0.00000000E+00  0.00000000E+00  0.00000000E+00  0.00000000E+00  0.00000000E+00
  0.00000000E+00  0.00000000E+00  0.00000000E+00  0.00000000E+00  0.00000000E+00
  0.00000000E+00  0.00000000E+00  0.00000000E+00  0.00000000E+00  0.00000000E+00
  0.00000000E+00  0.00000000E+00  0.00000000E+00  0.00000000E+00  0.00000000E+00
  0.00000000E+00  0.00000000E+00  0.00000000E+00  0.00000000E+00  0.00000000E+00
  0.00000000E+00  0.00000000E+00  0.00000000E+00  0.00000000E+00  0.00000000E+00
  0.00000000E+00  0.00000000E+00  0.00000000E+00  0.00000000E+00  0.00000000E+00
  0.00000000E+00  0.00000000E+00  0.00000000E+00  0.00000000E+00  0.00000000E+00
  0.00000000E+00  0.00000000E+00  0.00000000E+00  0.00000000E+00  0.00000000E+00
  0.00000000E+00  0.00000000E+00  0.00000000E+00  0.00000000E+00  0.00000000E+00
  0.00000000E+00  0.00000000E+00  0.00000000E+00  0.00000000E+00  0.00000000E+00
  0.00000000E+00  0.00000000E+00  0.00000000E+00  0.00000000E+00  0.00000000E+00
  0.00000000E+00  0.00000000E+00  0.00000000E+00  0.00000000E+00  0.00000000E+00
  0.00000000E+00  0.00000000E+00  0.00000000E+00  0.00000000E+00  0.00000000E+00
  0.00000000E+00  0.00000000E+00  0.00000000E+00  0.00000000E+00  0.00000000E+00
  0.00000000E+00  0.00000000E+00  0.00000000E+00  0.00000000E+00  0.00000000E+00
  0.00000000E+00  0.00000000E+00  0.00000000E+00  0.00000000E+00  0.00000000E+00
  0.00000000E+00  0.00000000E+00  0.00000000E+00  0.00000000E+00  0.00000000E+00
  0.00000000E+00  0.00000000E+00  0.00000000E+00  0.00000000E+00  0.00000000E+00
  0.00000000E+00  0.00000000E+00  0.00000000E+00  0.00000000E+00  0.00000000E+00
  0.00000000E+00  0.00000000E+00  0.00000000E+00  0.00000000E+00  0.00000000E+00
  0.00000000E+00  0.00000000E+00  0.00000000E+00  0.00000000E+00  0.00000000E+00
  0.00000000E+00  0.00000000E+00  0.00000000E+00  0.00000000E+00  0.00000000E+00
  0.00000000E+00  0.00000000E+00  0.00000000E+00  0.00000000E+00  0.00000000E+00
  0.00000000E+00  0.00000000E+00  0.00000000E+00  0.00000000E+00  0.00000000E+00
  0.00000000E+00  0.00000000E+00  0.00000000E+00  0.00000000E+00  0.00000000E+00
  0.00000000E+00  0.00000000E+00  0.00000000E+00  0.00000000E+00  0.00000000E+00
  0.00000000E+00  0.00000000E+00  0.00000000E+00  0.00000000E+00  0.00000000E+00
  0.00000000E+00  0.00000000E+00  0.00000000E+00  0.00000000E+00  0.00000000E+00
  0.00000000E+00  0.00000000E+00  0.00000000E+00  0.00000000E+00  0.00000000E+00
  0.00000000E+00  0.00000000E+00  0.00000000E+00  0.00000000E+00  0.00000000E+00
  0.00000000E+00  0.00000000E+00  0.00000000E+00  0.00000000E+00  0.00000000E+00
  0.00000000E+00  0.00000000E+00  0.00000000E+00  0.00000000E+00  0.00000000E+00
  0.00000000E+00  0.00000000E+00  0.00000000E+00  0.00000000E+00  0.00000000E+00
  0.00000000E+00  0.00000000E+00  0.00000000E+00  0.00000000E+00  0.00000000E+00
  0.00000000E+00  0.00000000E+00  0.00000000E+00  0.00000000E+00  0.00000000E+00
  0.00000000E+00  0.00000000E+00  0.00000000E+00  0.00000000E+00  0.00000000E+00
  0.00000000E+00  0.00000000E+00  0.00000000E+00  0.00000000E+00  0.00000000E+00
  0.00000000E+00  0.00000000E+00  0.00000000E+00  0.00000000E+00  0.00000000E+00